Script started on Wed 02 Jan 2019 12:12:01 PM CST
2;./benchmark.sh1;./benchmark.shspec_init
Loading Input Data
Duplicating 8070616 bytes
Duplicating 16141232 bytes
Duplicating 32282464 bytes
Duplicating 2543936 bytes
Input data 67108864 bytes in length
Compressing Input Data, level 5
Compressed data 23111207 bytes in length
Uncompressing Data
Uncompressed data 67108864 bytes in length
Uncompressed data compared correctly
Compressing Input Data, level 7
Compressed data 23391336 bytes in length
Uncompressing Data
Uncompressed data 67108864 bytes in length
Uncompressed data compared correctly
Compressing Input Data, level 9
Compressed data 23636514 bytes in length
Uncompressing Data
Uncompressed data 67108864 bytes in length
Uncompressed data compared correctly
Tested 64MB buffer: OK!

real	0m19.448s
user	0m19.380s
sys	0m0.064s

real	0m0.824s
user	0m0.820s
sys	0m0.000s
At line 21 of file flow_lam.f (unit = 50, file = 'bwaves.in')
Fortran runtime error: End of file

real	0m0.001s
user	0m0.000s
sys	0m0.004s
          ******************************************************
          *         GAMESS VERSION = 12 DEC 2003 (R2)          *
          *             FROM IOWA STATE UNIVERSITY             *
          * M.W.SCHMIDT, K.K.BALDRIDGE, J.A.BOATZ, S.T.ELBERT, *
          *   M.S.GORDON, J.H.JENSEN, S.KOSEKI, N.MATSUNAGA,   *
          *          K.A.NGUYEN, S.J.SU, T.L.WINDUS,           *
          *       TOGETHER WITH M.DUPUIS, J.A.MONTGOMERY       *
          *         J.COMPUT.CHEM.  14, 1347-1363(1993)        *
          **************** SPEC-CPU2006 VERSION ****************

     SINCE 1993, STUDENTS AND POSTDOCS WORKING AT IOWA STATE UNIVERSITY
     AND ALSO IN THEIR VARIOUS JOBS AFTER LEAVING ISU HAVE MADE IMPORTANT
     CONTRIBUTIONS TO THE CODE:
     IVANA ADAMOVIC, CHRISTINE AIKENS, ROB BELL, PRADIPTA BANDYOPADHYAY,
     BRETT BODE, GALINA CHABAN, WEI CHEN, CHEOL HO CHOI, PAUL DAY,
     TIM DUDLEY, DMITRI FEDOROV, GRAHAM FLETCHER, MARK FREITAG,
     KURT GLAESEMANN, GRANT MERRILL, HEATHER NETZLOFF, RYAN OLSON,
     MIKE PAK, JIM SHOEMAKER, TETSUYA TAKETSUGU, SIMON WEBB.

     ADDITIONAL CODE HAS BEEN PROVIDED BY COLLABORATORS IN OTHER GROUPS:
     IOWA STATE UNIVERSITY: JOE IVANIC, KLAUS RUEDENBERG
     UNIVERSITY OF TOKYO: KIMIHIKO HIRAO, HARUYUKI NAKANO, TAKAHITO
          NAKAJIMA, TAKAO TSUNEDA, MUNEAKI KAMIYA, SUSUMU YANAGISAWA
     ODENSE UNIVERSITY: FRANK JENSEN
     UNIVERSITY OF IOWA: VISVALDAS KAIRYS, HUI LI
     NATIONAL INST. OF STANDARDS AND TECHNOLOGY: WALT STEVENS, DAVID GARMER
     UNIVERSITY OF PISA: BENEDETTA MENNUCCI, JACOPO TOMASI
     UNIVERSITY OF MEMPHIS: HENRY KURTZ, PRAKASHAN KORAMBATH
     UNIVERSITY OF ALBERTA: MARIUSZ KLOBUKOWSKI
     UNIVERSITY OF NEW ENGLAND: MARK SPACKMAN
     MIE UNIVERSITY: HIROAKI UMEDA
     MICHIGAN STATE UNIVERSITY: KAROL KOWALSKI, PIOTR PIECUCH
     UNIVERSITY OF SILESIA: MONIKA MUSIAL, STANISLAW KUCHARSKI
     FACULTES UNIVERSITAIRES NOTRE-DAME DE LA PAIX:
          OLIVIER QUINET, BENOIT CHAMPAGNE
     UNIVERSITY OF CALIFORNIA - SANTA BARBARA: BERNARD KIRTMAN

 EXECUTION OF GAMESS BEGUN 

            ECHO OF THE FIRST FEW INPUT CARDS -
 INPUT CARD>! EXAM29.  surface scan                                                         
 INPUT CARD>!  The scan is done over a 3x3 grid centered on the SCF                         
 INPUT CARD>!  transition state for the endothermic SN2 type reaction                       
 INPUT CARD>!      F- + NH2OH -> F-NH2-OH anion -> FNH2 + OH-                               
 INPUT CARD>!                                                                               
 INPUT CARD>!  Groups 1 and 2 are F and OH, and their distance from                         
 INPUT CARD>!  the N is varied antisymmetrically, which is more or                          
 INPUT CARD>!  less what the IRC should be like.  The results seem to                       
 INPUT CARD>!  indicate that the MP2/3-21G saddle point would shift                         
 INPUT CARD>!  further into the product channel, since the higher                           
 INPUT CARD>!  MP2 energies occur at shorter r(NF) and longer r(NO):                        
 INPUT CARD>!                                                                               
 INPUT CARD>!  FINAL E= -229.0368324515, E(MP2)= -229.3873302282                            
 INPUT CARD>!  FINAL E= -229.0356378316, E(MP2)= -229.3866642594                            
 INPUT CARD>!  FINAL E= -229.0309266216, E(MP2)= -229.3822094678                            
 INPUT CARD>!  FINAL E= -229.0372146614, E(MP2)= -229.3923234983                            
 INPUT CARD>!  FINAL E= -229.0385440205, E(MP2)= -229.3936486561                            
 INPUT CARD>!  FINAL E= -229.0367369459, E(MP2)= -229.3913682976                            
 INPUT CARD>!  FINAL E= -229.0328601041, E(MP2)= -229.3918931911                            
 INPUT CARD>!  FINAL E= -229.0364643856, E(MP2)= -229.3948325418                            
 INPUT CARD>!  FINAL E= -229.0372478140, E(MP2)= -229.3943498039                            
 INPUT CARD>!                                                                               
 INPUT CARD>!  A more conclusive way to tell this would be to compute                       
 INPUT CARD>!  single point MP2 energies along the SCF IRC, since the                       
 INPUT CARD>!  true reaction path always curves, and thus does not lie                      
 INPUT CARD>!  along rectangular grid points.                                               
 INPUT CARD>!                                                                               
 INPUT CARD> $contrl scftyp=rhf runtyp=surface                                              
 INPUT CARD>         icharg=-1 coord=zmt mplevl=2 $end                                      
 INPUT CARD> $system memory=500000 timlim=30 $end                                           
 INPUT CARD> $surf   ivec1(1)=2,1 igrp1=1                                                   
 INPUT CARD>         ivec2(1)=2,5 igrp2(1)=5,6                                              
 INPUT CARD>         disp1= 0.10 ndisp1=3 orig1=-0.10                                       
 INPUT CARD>         disp2=-0.10 ndisp2=3 orig2= 0.10 $end                                  
 INPUT CARD> $basis  gbasis=n21 ngauss=3 $end                                               
 INPUT CARD> $guess  guess=huckel $end                                                      
 INPUT CARD> $data                                                                          
 INPUT CARD>F-NH2-OH exchange (inspired by J.Phys.Chem. 1994,98,7942-4)                     
 INPUT CARD>Cs                                                                              
 INPUT CARD>                                                                                
 INPUT CARD>F                                                                               
 INPUT CARD>N 1 rNF                                                                         
 INPUT CARD>H 2 rNH   1  aFNH                                                               
 INPUT CARD>H 2 rNH   1  aFNH   3 aHNH  +1                                                  
 INPUT CARD>O 2 rNO   3  aONH   4 aONH  -1                                                  
 INPUT CARD>H 5 rOH   2  aHON   1 180.0                                                     
 INPUT CARD>                                                                                
 INPUT CARD>rNF=1.7125469                                                                   
 INPUT CARD>rNH=0.9966981                                                                   
 INPUT CARD>rNO=1.9359887                                                                   

 ..... DONE SETTING UP THE RUN .....
LOCMEM is    1   1
     500000 WORDS OF MEMORY AVAILABLE

     BASIS OPTIONS
     -------------
     GBASIS=N21          IGAUSS=       3      POLAR=NONE    
     NDFUNC=       0     NFFUNC=       0     DIFFSP=       F
     NPFUNC=       0      DIFFS=       F


     RUN TITLE
     ---------
 F-NH2-OH exchange (inspired by J.Phys.Chem. 1994,98,7942-4)                     

 THE POINT GROUP OF THE MOLECULE IS CS      
 THE ORDER OF THE PRINCIPAL AXIS IS     0

 YOUR FULLY SUBSTITUTED Z-MATRIX IS
 F   
 N      1   1.7125469
 H      2   0.9966981  1   90.1849
 H      2   0.9966981  1   90.1849  3  108.5700  1
 O      2   1.9359887  3   79.3434  4   79.3434 -1
 H      5   0.9828978  2  100.7885  1  180.0000  0

 THE MOMENTS OF INERTIA ARE (AMU-ANGSTROM**2)
 IXX=     3.103   IYY=   119.201   IZZ=   119.665

 ATOM      ATOMIC                      COORDINATES (BOHR)
           CHARGE         X                   Y                   Z
 F           9.0     3.2294062787       -0.1045539737        0.0000000000
 N           7.0     0.0301704385        0.3834703492        0.0000000000
 H           1.0    -0.1416396910       -0.7025151675       -1.5292604046
 H           1.0    -0.1416396910       -0.7025151675        1.5292604046
 O           8.0    -3.5783718137       -0.2189899551        0.0000000000
 H           1.0    -4.2217645512        1.5234245953        0.0000000000

          INTERNUCLEAR DISTANCES (ANGS.)
          ------------------------------

                    F              N              H              H         

  1  F               0.0000000      1.7125469 *    1.9842486 *    1.9842486 *  
  2  N               1.7125469 *    0.0000000      0.9966981 *    0.9966981 *  
  3  H               1.9842486 *    0.9966981 *    0.0000000      1.6184996 *  
  4  H               1.9842486 *    0.9966981 *    1.6184996 *    0.0000000    
  5  O               3.6030302      1.9359887 *    2.0069400 *    2.0069400 *  
  6  H               4.0360048      2.3294889 *    2.5892327 *    2.5892327 *  

                    O              H         

  1  F               3.6030302      4.0360048    
  2  N               1.9359887 *    2.3294889 *  
  3  H               2.0069400 *    2.5892327 *  
  4  H               2.0069400 *    2.5892327 *  
  5  O               0.0000000      0.9828978 *  
  6  H               0.9828978 *    0.0000000    

  * ... LESS THAN  3.000


     ATOMIC BASIS SET
     ----------------
 THE CONTRACTED PRIMITIVE FUNCTIONS HAVE BEEN UNNORMALIZED
 THE CONTRACTED BASIS FUNCTIONS ARE NOW NORMALIZED TO UNITY

 SHELL TYPE PRIMITIVE    EXPONENT          CONTRACTION COEFFICIENTS

 F         

   1   S    1           413.8010000      0.058548302929
   1   S    2            62.2446000      0.349308017477
   1   S    3            13.4340000      0.709632035505

   2   L    4             9.7775900     -0.407326277682      0.246680003198
   2   L    5             2.0861700      1.223137830990      0.852321011049

   3   L    6             0.4823830      1.000000000000      1.000000000000

 N         

   4   S    7           242.7660000      0.059865700508
   4   S    8            36.4851000      0.352955002994
   4   S    9             7.8144900      0.706513005993

   5   L   10             5.4252200     -0.413300077430      0.237972016222
   5   L   11             1.1491500      1.224417266851      0.858953058551

   6   L   12             0.2832050      1.000000000000      1.000000000000

 H         

   9   S   13             5.4471780      0.156284978695
   9   S   14             0.8245472      0.904690876670

  10   S   15             0.1831916      1.000000000000

 O         

  11   S   16           322.0370000      0.059239393389
  11   S   17            48.4308000      0.351499960776
  11   S   18            10.4206000      0.707657921031

  12   L   19             7.4029400     -0.404453583190      0.244586106967
  12   L   20             1.5762000      1.221561761397      0.853955373466

  13   L   21             0.3736840      1.000000000000      1.000000000000

 H         

  14   S   22             5.4471780      0.156284978695
  14   S   23             0.8245472      0.904690876670

  15   S   24             0.1831916      1.000000000000

 TOTAL NUMBER OF BASIS SET SHELLS             =   15
 NUMBER OF CARTESIAN GAUSSIAN BASIS FUNCTIONS =   33
 NUMBER OF ELECTRONS                          =   28
 CHARGE OF MOLECULE                           =   -1
 SPIN MULTIPLICITY                            =    1
 NUMBER OF OCCUPIED ORBITALS (ALPHA)          =   14
 NUMBER OF OCCUPIED ORBITALS (BETA )          =   14
 TOTAL NUMBER OF ATOMS                        =    6
 THE NUCLEAR REPULSION ENERGY IS       69.6136930289

     $CONTRL OPTIONS
     ---------------
 SCFTYP=RHF          RUNTYP=SURFACE      EXETYP=RUN     
 MPLEVL=       2     CITYP =NONE         CCTYP =NONE    
 MULT  =       1     ICHARG=      -1     NZVAR =       0     COORD =ZMT     
 ECP   =NONE         RELWFN=NONE         LOCAL =NONE         NUMGRD=       F
 ISPHER=      -1     NOSYM =       0     MAXIT =      30     UNITS =ANGS    
 PLTORB=       F     MOLPLT=       F     AIMPAC=       F     FRIEND=        
 NPRINT=       7     IREST =       0     GEOM  =INPUT   
 NORMF =       0     NORMP =       0     ITOL  =      20     ICUT  =       9
 INTTYP=POPLE        QMTTOL= 1.0E-06

     $SYSTEM OPTIONS
     ---------------
  REPLICATED MEMORY=      500000 WORDS (ON EVERY NODE).
 DISTRIBUTED MEMDDI=           0 MILLION WORDS IN AGGREGATE,
 MEMDDI DISTRIBUTED OVER   1 PROCESSORS IS           0 WORDS/PROCESSOR.
 TOTAL MEMORY REQUESTED ON EACH PROCESSOR=      500000 WORDS.
 TIMLIM=      1800.0 SECONDS.
 COREFL=F     KDIAG= 0

          ----------------
          PROPERTIES INPUT
          ----------------

     MOMENTS            FIELD           POTENTIAL          DENSITY
 IEMOM =       1   IEFLD =       0   IEPOT =       0   IEDEN =       0
 WHERE =COMASS     WHERE =NUCLEI     WHERE =NUCLEI     WHERE =NUCLEI  
 OUTPUT=BOTH       OUTPUT=BOTH       OUTPUT=BOTH       OUTPUT=BOTH    
 IEMINT=       0   IEFINT=       0                     IEDINT=       0
                                                       MORB  =       0
          EXTRAPOLATION IN EFFECT
          SOSCF IN EFFECT

     -------------------------------
     INTEGRAL TRANSFORMATION OPTIONS
     -------------------------------
     NWORD  =       0     CUTOFF = 1.0E-09
     MPTRAN =       0     DIRTRF =       F
     AOINTS =DUP     

          ----------------------
          INTEGRAL INPUT OPTIONS
          ----------------------
 NOPK  =       1 NORDER=       0 SCHWRZ=       T

          -----------------------
          MP2 CONTROL INFORMATION
          -----------------------
          NACORE =        3  NBCORE =        3
          LMOMP2 =        F  AOINTS = DUP     
          METHOD =        2  NWORD  =          0
          MP2PRP =        F  OSPT   = NONE    
          CUTOFF = 1.00E-09  CPHFBS = BASISAO 

          NUMBER OF CORE -A-  ORBITALS =     3
          NUMBER OF CORE -B-  ORBITALS =     3
          NUMBER OF OCC. -A-  ORBITALS =    14
          NUMBER OF OCC. -B-  ORBITALS =    14
          NUMBER OF MOLECULAR ORBITALS =    33
          NUMBER OF   BASIS  FUNCTIONS =    33


   --- ENCODED Z MATRIX ---
 COORD  TYPE   I   J   K   L   M   N
    1      1    2   1
    2      1    4   2
    3      2    4   2   1
    4      1    3   2
    5      2    3   2   1
    6      2    3   2   4
    7      1    5   2
    8      2    5   2   4
    9      2    5   2   3
   10      1    6   5
   11      2    6   5   2
   12      3    6   5   2   1

 THE DETERMINANT OF THE G MATRIX IS 10**(    -8)

     ------------------------------------------
     THE POINT GROUP IS CS , NAXIS= 0, ORDER= 2
     ------------------------------------------

     DIMENSIONS OF THE SYMMETRY SUBSPACES ARE
 A'  =   25     A'' =    8

 ..... DONE SETTING UP THE RUN .....
 STEP CPU TIME =     0.00 TOTAL CPU TIME =        0.0 (    0.0 MIN)
 TOTAL WALL CLOCK TIME=        0.0 SECONDS, CPU UTILIZATION IS 100.00%

     ---------------------------
     POTENTIAL SURFACE MAP INPUT
     ---------------------------
 JOB 1 IS RUNTYP=ENERGY   SCFTYP=RHF       CITYP=NONE    
          MPLEVL=       2  CCTYP=NONE     DFTTYP=NONE    
 COORD 1 LYING ALONG ATOM PAIR    2    1
 HAS ORIGIN=-0.100, DISPLACEMENT= 0.100  AND  3 STEPS.
 GROUP 1 CONTAINS    1 ATOMS:
     1
 COORD 2 LYING ALONG ATOM PAIR    2    5
 HAS ORIGIN= 0.100, DISPLACEMENT=-0.100  AND  3 STEPS.
 GROUP 2 CONTAINS    2 ATOMS:
     5    6

 ATOM      ATOMIC                      COORDINATES (BOHR)
           CHARGE         X                   Y                   Z
 F           9.0     3.0425947035       -0.0760569835        0.0000000000
 N           7.0     0.0301704385        0.3834703492        0.0000000000
 H           1.0    -0.1416396910       -0.7025151675       -1.5292604046
 H           1.0    -0.1416396910       -0.7025151675        1.5292604046
 O           8.0    -3.7647645469       -0.2501089541        0.0000000000
 H           1.0    -4.4081572844        1.4923055963        0.0000000000

          INTERNUCLEAR DISTANCES (ANGS.)
          ------------------------------

                    F              N              H              H         

  1  F               0.0000000      1.6125469 *    1.8984440 *    1.8984440 *  
  2  N               1.6125469 *    0.0000000      0.9966981 *    0.9966981 *  
  3  H               1.8984440 *    0.9966981 *    0.0000000      1.6184996 *  
  4  H               1.8984440 *    0.9966981 *    1.6184996 *    0.0000000    
  5  O               3.6034769      2.0359887 *    2.0947896 *    2.0947896 *  
  6  H               4.0291719      2.4208496 *    2.6648185 *    2.6648185 *  

                    O              H         

  1  F               3.6034769      4.0291719    
  2  N               2.0359887 *    2.4208496 *  
  3  H               2.0947896 *    2.6648185 *  
  4  H               2.0947896 *    2.6648185 *  
  5  O               0.0000000      0.9828978 *  
  6  H               0.9828978 *    0.0000000    

  * ... LESS THAN  3.000


          ********************
          1 ELECTRON INTEGRALS
          ********************
 ...... END OF ONE-ELECTRON INTEGRALS ......
 STEP CPU TIME =     0.00 TOTAL CPU TIME =        0.0 (    0.0 MIN)
 TOTAL WALL CLOCK TIME=        0.0 SECONDS, CPU UTILIZATION IS 100.00%

          -------------
          GUESS OPTIONS
          -------------
          GUESS =HUCKEL            NORB  =       0          NORDER=       0
          MIX   =       F          PRTMO =       F          PUNMO =       F
          TOLZ  = 1.0E-08          TOLE  = 1.0E-05
          SYMDEN=       F          PURIFY=       F

 INITIAL GUESS ORBITALS GENERATED BY HUCKEL   ROUTINE.
 HUCKEL GUESS REQUIRES     13563 WORDS.

 SYMMETRIES FOR INITIAL GUESS ORBITALS FOLLOW.   BOTH SET(S).
    14 ORBITALS ARE OCCUPIED (    3 CORE ORBITALS).
     4=A'       5=A'       6=A'       7=A''      8=A'       9=A'      10=A'  
    11=A''     12=A''     13=A'      14=A'      15=A'      16=A''     17=A'  
    18=A'      19=A'      20=A'      21=A'      22=A'      23=A'      24=A'  
 ...... END OF INITIAL ORBITAL SELECTION ......
 STEP CPU TIME =     0.00 TOTAL CPU TIME =        0.0 (    0.0 MIN)
 TOTAL WALL CLOCK TIME=        0.0 SECONDS, CPU UTILIZATION IS 100.00%

          --------------------
          2 ELECTRON INTEGRALS
          --------------------

 THE -PK- OPTION IS OFF, THE INTEGRALS ARE NOT IN SUPERMATRIX FORM.
 STORING   15000 INTEGRALS/RECORD ON DISK, USING 12 BYTES/INTEGRAL.
 TWO ELECTRON INTEGRAL EVALUATION REQUIRES   59776 WORDS OF MEMORY.
 SCHWARZ INEQUALITY OVERHEAD:       529 INTEGRALS, T=        0.00
 II,JST,KST,LST =  1  1  1  1 NREC =         1 INTLOC =    1
 II,JST,KST,LST =  2  1  1  1 NREC =         1 INTLOC =    2
 II,JST,KST,LST =  3  1  1  1 NREC =         1 INTLOC =   34
 II,JST,KST,LST =  4  1  1  1 NREC =         1 INTLOC =  214
 II,JST,KST,LST =  5  1  1  1 NREC =         1 INTLOC =  449
 II,JST,KST,LST =  6  1  1  1 NREC =         1 INTLOC = 2585
 II,JST,KST,LST =  7  1  1  1 NREC =         1 INTLOC = 7245
 II,JST,KST,LST =  8  1  1  1 NREC =         1 INTLOC = 7245
 II,JST,KST,LST =  9  1  1  1 NREC =         1 INTLOC = 7245
 II,JST,KST,LST = 10  1  1  1 NREC =         1 INTLOC =10967
 II,JST,KST,LST = 11  1  1  1 NREC =         2 INTLOC =  978
 II,JST,KST,LST = 12  1  1  1 NREC =         2 INTLOC = 2387
 II,JST,KST,LST = 13  1  1  1 NREC =         2 INTLOC =12616
 II,JST,KST,LST = 14  1  1  1 NREC =         4 INTLOC = 3826
 II,JST,KST,LST = 15  1  1  1 NREC =         4 INTLOC = 9666
 SCHWARZ INEQUALITY TEST SKIPPED       954 INTEGRAL BLOCKS.
 TOTAL NUMBER OF NONZERO TWO-ELECTRON INTEGRALS =               63381
          5 INTEGRAL RECORDS WERE STORED ON DISK FILE  8.
  ...... END OF TWO-ELECTRON INTEGRALS .....

          --------------------------
                 RHF SCF CALCULATION
          --------------------------

     NUCLEAR ENERGY =        70.0382261096
     MAXIT =   30     NPUNCH=    2
     EXTRAP=T  DAMP=F  SHIFT=F  RSTRCT=F  DIIS=F  DEM=F  SOSCF=T
     DENSITY MATRIX CONV=  1.00E-05
     SOSCF WILL OPTIMIZE     266 ORBITAL ROTATIONS, SOGTOL=   0.250
     MEMORY REQUIRED FOR RHF STEP=     39149 WORDS.

 ITER EX DEM    TOTAL ENERGY       E CHANGE  DENSITY CHANGE     ORB. GRAD
   1  0  0     -228.438026762  -228.438026762   2.057216987   0.000000000
   2  1  0      -13.398272306   215.039754456   0.019611730   2.138165837
          ---------------START SECOND ORDER SCF---------------
   3  2  0      -13.404086244    -0.005813938   0.000644098   0.008801378
   4  3  0      -13.404093666    -0.000007422   0.000028154   0.000448854
   5  4  0      -13.404093683    -0.000000017   0.000000370   0.000004470
   6  5  0      -13.404093683    -0.000000000   0.000000008   0.000000051

          -----------------
          DENSITY CONVERGED
          -----------------
     TIME TO FORM FOCK OPERATORS=       0.0 SECONDS (       0.0 SEC/ITER)
     TIME TO SOLVE SCF EQUATIONS=       0.0 SECONDS (       0.0 SEC/ITER)

 FINAL RHF ENERGY IS      -13.4040936831 AFTER   6 ITERATIONS
 ...... END OF RHF CALCULATION ......
 STEP CPU TIME =     0.00 TOTAL CPU TIME =        0.0 (    0.0 MIN)
 TOTAL WALL CLOCK TIME=        0.0 SECONDS, CPU UTILIZATION IS 100.00%

 --------------------------   ----------------------------------------------
 RHF-MP2 ENERGY CALCULATION   PROGRAM WRITTEN BY M.DUPUIS,C.DANIEL,A.MARQUEZ
 --------------------------   ----------------------------------------------
 NCORE=    3   NOCC=   14   NMOS=   33   NAOS=   33
 INTEGRAL TRANSFORMATION CANNOT ASSIGN A DEFINITE ORBITAL SYMMETRY TO MO    1
 INTEGRAL TRANSFORMATION CANNOT ASSIGN A DEFINITE ORBITAL SYMMETRY TO MO    2
 INTEGRAL TRANSFORMATION CANNOT ASSIGN A DEFINITE ORBITAL SYMMETRY TO MO    3
 INTEGRAL TRANSFORMATION CANNOT ASSIGN A DEFINITE ORBITAL SYMMETRY TO MO    4
 INTEGRAL TRANSFORMATION CANNOT ASSIGN A DEFINITE ORBITAL SYMMETRY TO MO    5
 INTEGRAL TRANSFORMATION CANNOT ASSIGN A DEFINITE ORBITAL SYMMETRY TO MO    6
 INTEGRAL TRANSFORMATION CANNOT ASSIGN A DEFINITE ORBITAL SYMMETRY TO MO    7
 INTEGRAL TRANSFORMATION CANNOT ASSIGN A DEFINITE ORBITAL SYMMETRY TO MO    8
 INTEGRAL TRANSFORMATION CANNOT ASSIGN A DEFINITE ORBITAL SYMMETRY TO MO    9
 INTEGRAL TRANSFORMATION CANNOT ASSIGN A DEFINITE ORBITAL SYMMETRY TO MO   11
 INTEGRAL TRANSFORMATION CANNOT ASSIGN A DEFINITE ORBITAL SYMMETRY TO MO   12
 INTEGRAL TRANSFORMATION CANNOT ASSIGN A DEFINITE ORBITAL SYMMETRY TO MO   13
 INTEGRAL TRANSFORMATION CANNOT ASSIGN A DEFINITE ORBITAL SYMMETRY TO MO   14
 INTEGRAL TRANSFORMATION CANNOT ASSIGN A DEFINITE ORBITAL SYMMETRY TO MO   15
 INTEGRAL TRANSFORMATION CANNOT ASSIGN A DEFINITE ORBITAL SYMMETRY TO MO   16
 INTEGRAL TRANSFORMATION CANNOT ASSIGN A DEFINITE ORBITAL SYMMETRY TO MO   17
 INTEGRAL TRANSFORMATION CANNOT ASSIGN A DEFINITE ORBITAL SYMMETRY TO MO   18
 INTEGRAL TRANSFORMATION CANNOT ASSIGN A DEFINITE ORBITAL SYMMETRY TO MO   19
 INTEGRAL TRANSFORMATION CANNOT ASSIGN A DEFINITE ORBITAL SYMMETRY TO MO   20
 INTEGRAL TRANSFORMATION CANNOT ASSIGN A DEFINITE ORBITAL SYMMETRY TO MO   21
 INTEGRAL TRANSFORMATION CANNOT ASSIGN A DEFINITE ORBITAL SYMMETRY TO MO   22
 INTEGRAL TRANSFORMATION CANNOT ASSIGN A DEFINITE ORBITAL SYMMETRY TO MO   23
 INTEGRAL TRANSFORMATION CANNOT ASSIGN A DEFINITE ORBITAL SYMMETRY TO MO   24
 INTEGRAL TRANSFORMATION CANNOT ASSIGN A DEFINITE ORBITAL SYMMETRY TO MO   25
 INTEGRAL TRANSFORMATION CANNOT ASSIGN A DEFINITE ORBITAL SYMMETRY TO MO   26
 INTEGRAL TRANSFORMATION CANNOT ASSIGN A DEFINITE ORBITAL SYMMETRY TO MO   27
 INTEGRAL TRANSFORMATION CANNOT ASSIGN A DEFINITE ORBITAL SYMMETRY TO MO   29
 INTEGRAL TRANSFORMATION CANNOT ASSIGN A DEFINITE ORBITAL SYMMETRY TO MO   30


 ** ERROR **  THE MO-S ARE NOT SYMMETRICAL ENOUGH.

 YOU MUST TAKE ACTION TO RECOVER SYMMETRY, PERHAPS TO
 PROVIDE A SYMMETRY ADAPTED MO SET BY GUESS=MOREAD,
 OR ENTER NOSYM=1 TO USE THESE SYMMETRY BROKEN MO-S.

 EXECUTION OF GAMESS TERMINATED -ABNORMALLY- AT \DE\FF\FF\FF\FF\FF\FF\FF\00\00\00\00\00\00\00\00\00\00UU\00\00
Note: The following floating-point exceptions are signalling: IEEE_UNDERFLOW_FLAG IEEE_DENORMAL
STOP IN ABRT

real	0m0.020s
user	0m0.016s
sys	0m0.000s

MCF SPEC CPU2006 version 1.10
Copyright (c) 1998-2000 Zuse Institut Berlin (ZIB)
Copyright (c) 2000-2002 Andreas Loebel & ZIB
Copyright (c) 2003-2005 Andreas Loebel

nodes                      : 5985
active arcs                : 102404
simplex iterations         : 63475
objective value            : 3180065918
new implicit arcs          : 2393292
active arcs                : 2495696
simplex iterations         : 118645
objective value            : 2060055866
erased arcs                : 2387557
checksum                   : 2997477
done

real	0m2.363s
user	0m2.316s
sys	0m0.044s
SU3 with improved KS action
Microcanonical simulation with refreshing
MIMD version 6
Machine = Scalar processor, with 1 nodes
R algorithm
type 0 for no prompts  or 1 for prompts
nflavors 2
nx 10
ny 10
nz 10
nt 2
iseed 1234
LAYOUT = Hypercubes, options = EVENFIRST,
Made lattice
Made nn gathers
Made 3nn gathers
Finished setup


warms 0
trajecs 1
traj_between_meas 1
beta 5.6
mass 0.125
u0 1
microcanonical_time_step 0.2
steps_per_trajectory 5
max_cg_iterations 100
error_per_site 0.125
error_for_propagator 0.125
fresh 
forget 
unit gauge configuration loaded
CHECK PLAQ: 3.000000e+00 3.000000e+00
Unitarity checked.  Max deviation 0.00e+00
Symanzik 1x1 + 1x2 + 1x1x1 action
loop coefficients: nloop rep loop_coeff  multiplicity
                    0 0      1.000000e+00     6
                    1 0      -5.000000e-02     12
                    2 0      0.000000e+00     16
"O(a^2): couplings(pi)=0, Naik term, No O(a^2) errors, tadpole weights"
path coefficients: npath  path_coeff  multiplicity
                    0      6.250000e-01     8
                    1      -4.166667e-02     8
                    2      -6.250000e-02     48
                    3      1.562500e-02     192
                    4      -2.604167e-03     384
                    5      -6.250000e-02     48
WARMUPS COMPLETED
PLAQ:	2.435823	2.546403
P_LOOP:	2.332956e+00	-1.789245e-03
G_LOOP:  0  0  4   	2.435635e+00	( 0 1 7 6  )
G_LOOP:  0  1  4   	2.446423e+00	( 0 2 7 5  )
G_LOOP:  0  2  4   	2.548911e+00	( 0 3 7 4  )
G_LOOP:  0  3  4   	2.425411e+00	( 1 2 6 5  )
G_LOOP:  0  4  4   	2.540922e+00	( 1 3 6 4  )
G_LOOP:  0  5  4   	2.549375e+00	( 2 3 5 4  )
G_LOOP:  1  0  6   	1.967782e+00	( 0 0 1 7 7 6  )
G_LOOP:  1  1  6   	1.995715e+00	( 0 0 2 7 7 5  )
G_LOOP:  1  2  6   	2.265034e+00	( 0 0 3 7 7 4  )
G_LOOP:  1  3  6   	1.961159e+00	( 1 1 0 6 6 7  )
G_LOOP:  1  4  6   	1.933866e+00	( 1 1 2 6 6 5  )
G_LOOP:  1  5  6   	2.263276e+00	( 1 1 3 6 6 4  )
G_LOOP:  1  6  6   	1.978331e+00	( 2 2 0 5 5 7  )
G_LOOP:  1  7  6   	1.944970e+00	( 2 2 1 5 5 6  )
G_LOOP:  1  8  6   	2.269692e+00	( 2 2 3 5 5 4  )
G_LOOP:  1  9  6   	2.319656e+00	( 3 3 0 4 4 7  )
G_LOOP:  1  10  6   	2.312999e+00	( 3 3 1 4 4 6  )
G_LOOP:  1  11  6   	2.320580e+00	( 3 3 2 4 4 5  )
G_LOOP:  2  0  6   	1.994213e+00	( 0 1 2 7 6 5  )
G_LOOP:  2  1  6   	1.969558e+00	( 0 1 5 7 6 2  )
G_LOOP:  2  2  6   	2.007915e+00	( 0 6 2 7 1 5  )
G_LOOP:  2  3  6   	1.979381e+00	( 0 6 5 7 1 2  )
G_LOOP:  2  4  6   	2.147546e+00	( 0 1 3 7 6 4  )
G_LOOP:  2  5  6   	2.119511e+00	( 0 1 4 7 6 3  )
G_LOOP:  2  6  6   	2.123694e+00	( 0 6 3 7 1 4  )
G_LOOP:  2  7  6   	2.129539e+00	( 0 6 4 7 1 3  )
G_LOOP:  2  8  6   	2.133251e+00	( 0 2 3 7 5 4  )
G_LOOP:  2  9  6   	2.129517e+00	( 0 2 4 7 5 3  )
G_LOOP:  2  10  6   	2.140019e+00	( 0 5 3 7 2 4  )
G_LOOP:  2  11  6   	2.138052e+00	( 0 5 4 7 2 3  )
G_LOOP:  2  12  6   	2.118916e+00	( 1 2 3 6 5 4  )
G_LOOP:  2  13  6   	2.123393e+00	( 1 2 4 6 5 3  )
G_LOOP:  2  14  6   	2.130550e+00	( 1 5 3 6 2 4  )
G_LOOP:  2  15  6   	2.116293e+00	( 1 5 4 6 2 3  )
GACTION: 2.529976e+00
PBP: mass 1.250000e-01     5.751269e-02  1.293620e-01 ( 1 of 1 )
FACTION: mass = 1.250000e-01,  1.496396e+00 ( 1 of 1 )
RUNNING COMPLETED
average cg iters for step= 3.000000e+00
total_iters = 22


warms 0
trajecs 1
traj_between_meas 1
beta 5.6
mass 0.0125
u0 1
microcanonical_time_step 0.01
steps_per_trajectory 5
max_cg_iterations 300
error_per_site 1e-05
error_for_propagator 1e-05
continue 
forget 
CHECK PLAQ: 2.435823e+00 2.546403e+00
Unitarity checked.  Max deviation 4.44e-16
Symanzik 1x1 + 1x2 + 1x1x1 action
loop coefficients: nloop rep loop_coeff  multiplicity
                    0 0      1.000000e+00     6
                    1 0      -5.000000e-02     12
                    2 0      0.000000e+00     16
"O(a^2): couplings(pi)=0, Naik term, No O(a^2) errors, tadpole weights"
path coefficients: npath  path_coeff  multiplicity
                    0      6.250000e-01     8
                    1      -4.166667e-02     8
                    2      -6.250000e-02     48
                    3      1.562500e-02     192
                    4      -2.604167e-03     384
                    5      -6.250000e-02     48
WARMUPS COMPLETED
PLAQ:	2.413381	2.525394
P_LOOP:	2.325341e+00	-2.229707e-03
G_LOOP:  0  0  4   	2.412537e+00	( 0 1 7 6  )
G_LOOP:  0  1  4   	2.422399e+00	( 0 2 7 5  )
G_LOOP:  0  2  4   	2.526935e+00	( 0 3 7 4  )
G_LOOP:  0  3  4   	2.405207e+00	( 1 2 6 5  )
G_LOOP:  0  4  4   	2.520967e+00	( 1 3 6 4  )
G_LOOP:  0  5  4   	2.528278e+00	( 2 3 5 4  )
G_LOOP:  1  0  6   	1.939992e+00	( 0 0 1 7 7 6  )
G_LOOP:  1  1  6   	1.963163e+00	( 0 0 2 7 7 5  )
G_LOOP:  1  2  6   	2.235391e+00	( 0 0 3 7 7 4  )
G_LOOP:  1  3  6   	1.934454e+00	( 1 1 0 6 6 7  )
G_LOOP:  1  4  6   	1.908238e+00	( 1 1 2 6 6 5  )
G_LOOP:  1  5  6   	2.236067e+00	( 1 1 3 6 6 4  )
G_LOOP:  1  6  6   	1.948923e+00	( 2 2 0 5 5 7  )
G_LOOP:  1  7  6   	1.922172e+00	( 2 2 1 5 5 6  )
G_LOOP:  1  8  6   	2.244963e+00	( 2 2 3 5 5 4  )
G_LOOP:  1  9  6   	2.298324e+00	( 3 3 0 4 4 7  )
G_LOOP:  1  10  6   	2.292208e+00	( 3 3 1 4 4 6  )
G_LOOP:  1  11  6   	2.300443e+00	( 3 3 2 4 4 5  )
G_LOOP:  2  0  6   	1.968372e+00	( 0 1 2 7 6 5  )
G_LOOP:  2  1  6   	1.941478e+00	( 0 1 5 7 6 2  )
G_LOOP:  2  2  6   	1.982965e+00	( 0 6 2 7 1 5  )
G_LOOP:  2  3  6   	1.951153e+00	( 0 6 5 7 1 2  )
G_LOOP:  2  4  6   	2.118013e+00	( 0 1 3 7 6 4  )
G_LOOP:  2  5  6   	2.090952e+00	( 0 1 4 7 6 3  )
G_LOOP:  2  6  6   	2.093512e+00	( 0 6 3 7 1 4  )
G_LOOP:  2  7  6   	2.100660e+00	( 0 6 4 7 1 3  )
G_LOOP:  2  8  6   	2.105093e+00	( 0 2 3 7 5 4  )
G_LOOP:  2  9  6   	2.100326e+00	( 0 2 4 7 5 3  )
G_LOOP:  2  10  6   	2.108553e+00	( 0 5 3 7 2 4  )
G_LOOP:  2  11  6   	2.113047e+00	( 0 5 4 7 2 3  )
G_LOOP:  2  12  6   	2.094016e+00	( 1 2 3 6 5 4  )
G_LOOP:  2  13  6   	2.094695e+00	( 1 2 4 6 5 3  )
G_LOOP:  2  14  6   	2.101503e+00	( 1 5 3 6 2 4  )
G_LOOP:  2  15  6   	2.088289e+00	( 1 5 4 6 2 3  )
GACTION: 2.644893e+00
PBP: mass 1.250000e-02     1.512271e-02  1.014454e-03 ( 1 of 1 )
FACTION: mass = 1.250000e-02,  1.505881e+00 ( 1 of 1 )
RUNNING COMPLETED
average cg iters for step= 1.300000e+01
total_iters = 100


get_i: EOF on STDIN while expecting warms.

real	0m11.507s
user	0m11.272s
sys	0m0.232s

 terminating on cycle limit
 tlim= 1.00000E-01   nlim=     30  cpulim= 1.00000E+05
 time= 1.05914E-03  cycle=     30   tused= 0.00000E+00

real	0m18.824s
user	0m18.784s
sys	0m0.032s

real	0m0.984s
user	0m0.968s
sys	0m0.004s
--------------------------------------------------------------------------------

       10                                  
  1   0101       ************************  
  01  1010 10      The Cactus Code V4.0    
 1010 1101 011      www.cactuscode.org     
  1001 100101    ************************  
    00010101                               
     100011     (c) Copyright The Authors  
      0100      GNU Licensed. No Warranty  
      0101                                 

--------------------------------------------------------------------------------

Cactus version: 4.0.b11
Parameter file: benchADM.par
--------------------------------------------------------------------------------

Activating thorn Cactus...Success -> active implementation Cactus
Activation requested for 
--->einstein time benchadm pugh pughreduce cartgrid3d ioutil iobasic <---
Activating thorn benchadm...Success -> active implementation benchadm
Activating thorn cartgrid3d...Success -> active implementation grid
Activating thorn einstein...Success -> active implementation einstein
Activating thorn iobasic...Success -> active implementation IOBasic
Activating thorn ioutil...Success -> active implementation IO
Activating thorn pugh...Success -> active implementation driver
Activating thorn pughreduce...Success -> active implementation reduce
Activating thorn time...Success -> active implementation time
--------------------------------------------------------------------------------
  if (recover)
    Recover parameters
  endif

  Startup routines
    BenchADM: Register slicings
    CartGrid3D: Register GH Extension for GridSymmetry
    CartGrid3D: Register coordinates for the Cartesian grid
    PUGH: Startup routine
    IOUtil: Startup routine
    IOBasic: Startup routine
    PUGHReduce: Startup routine.

  Parameter checking routines
    BenchADM: Check parameters
    CartGrid3D: Check coordinates for CartGrid3D

  Initialisation
    CartGrid3D: Set up spatial 3D Cartesian coordinates on the GH
    Einstein: Set up GF symmetries
    Einstein: Initialize slicing, setup priorities for mixed slicings
    PUGH: Report on PUGH set up
    Time: Initialise Time variables
    Time: Set timestep based on Courant condition
    Einstein: Initialisation for Einstein methods
    Einstein: Flat initial data
    BenchADM: Setup for ADM
    Einstein: Set initial lapse to a gaussian
    BenchADM: Time symmetric initial data for staggered leapfrog
    if (recover)
    endif
    if (checkpoint initial data)
    endif
    if (analysis)
      Einstein: Compute the trace of the extrinsic curvature
      Einstein: Calculate the spherical metric in r,theta(q), phi(p)
      Einstein: Calculate the spherical ex. curvature in r, theta(q), phi(p)
    endif

  do loop over timesteps
    Rotate timelevels
    iteration = iteration + 1
    t = t+dt
    Einstein: Identify the slicing for the next iteration
    BenchADM: Evolve using Staggered Leapfrog
    if (checkpoint)
    endif
    if (analysis)
      Einstein: Compute the trace of the extrinsic curvature
      Einstein: Calculate the spherical metric in r,theta(q), phi(p)
      Einstein: Calculate the spherical ex. curvature in r, theta(q), phi(p)
    endif
  enddo
  Termination routines
    PUGH: Termination routine
  Shutdown routines
--------------------------------------------------------------------------------
--------------------------------------------------------------------------------
Driver provided by PUGH
--------------------------------------------------------------------------------

INFO (IOBasic): I/O Method 'Scalar' registered
INFO (IOBasic): Scalar: Output of scalar quantities (grid scalars, reductions) to ASCII files
INFO (IOBasic): I/O Method 'Info' registered
INFO (IOBasic): Info: Output of scalar quantities (grid scalars, reductions) to screen
INFO (BenchADM): Evolve using the ADM system
INFO (BenchADM):   with staggered leapfrog
INFO (CartGrid3D): Grid Spacings:
INFO (CartGrid3D):  dx=>1.0000000e-01  dy=>1.0000000e-01  dz=>1.0000000e-01  
INFO (CartGrid3D): Computational Coordinates:
INFO (CartGrid3D):  x=>[-1.950, 1.950]  y=>[-1.950, 1.950]  z=>[-1.950, 1.950]  
INFO (CartGrid3D): Indices of Physical Coordinates:
INFO (CartGrid3D):  x=>[0,39]  y=>[0,39]  z=>[0,39]  
INFO (PUGH): Single processor evolution
INFO (PUGH): 3-dimensional grid functions
INFO (PUGH):   Size: 40 40 40
INFO (Einstein): Setting flat Minkowski space in Einstein
INFO (IOBasic): Info: Output every 10 iterations
INFO (IOBasic): Info: Output requested for BENCHADM::ADM_gxx BENCHADM::ADM_gyz
------------------------------------------------------------------------------
  it  |          | BENCHADM::ADM_gxx           | BENCHADM::ADM_gyz           |
      |    t     | minimum      | maximum      | minimum      | maximum      |
------------------------------------------------------------------------------
    0 |    0.000 |   1.00000000 |   1.00000000 |   0.00000000 |   0.00000000 |
   10 |    0.100 |   0.99987677 |   1.00005877 |  -0.00004683 |   0.00004683 |
   20 |    0.200 |   0.99952526 |   1.00022181 |  -0.00019306 |   0.00019306 |
   30 |    0.300 |   0.99900319 |   1.00046081 |  -0.00043291 |   0.00043291 |
   40 |    0.400 |   0.99829310 |   1.00079573 |  -0.00076711 |   0.00076711 |
   50 |    0.500 |   0.99736195 |   1.00124644 |  -0.00119544 |   0.00119544 |
   60 |    0.600 |   0.99621475 |   1.00179950 |  -0.00171307 |   0.00171307 |
   70 |    0.700 |   0.99486839 |   1.00243861 |  -0.00231496 |   0.00231496 |
   80 |    0.800 |   0.99332902 |   1.00316352 |  -0.00299734 |   0.00299734 |
   90 |    0.900 |   0.99159883 |   1.00397717 |  -0.00375618 |   0.00375618 |
  100 |    1.000 |   0.98968199 |   1.00487686 |  -0.00458712 |   0.00458712 |
--------------------------------------------------------------------------------
Done.

real	0m3.285s
user	0m3.264s
sys	0m0.012s

real	0m17.483s
user	0m17.476s
sys	0m0.000s
*** TEST RUN - 1 ITERATIONS ***
writing to output file namd.out
iteration 0: 1 0 0
iteration 0: 1 1 0
iteration 0: 1 1 1
iteration 0: 0 0 0
iteration 0: 0 1 0
iteration 0: 0 1 1
*** TEST RUN - 1 ITERATIONS ***
SUCCESSFUL COMPLETION

real	0m17.544s
user	0m17.520s
sys	0m0.020s
= black

=1 1 T7

= black

=2 1 M1

= black

=3 0

= black

=4 0

= black

=5 0

= black

=6 1 N2

= black

=7 1 S2

= black

=8 3 G8

= black

=9 0

= black

=10 1 P11

= black

=11 0

= black

=12 0

= black

=13 0

= black

=14 0

= black

=15 0

= black

=16 1 A15

= black

=17 1 G6

= black

=18 1 F6


real	0m0.147s
user	0m0.108s
sys	0m0.016s
Refinement cycle: 0
   Number of degrees of freedom=79
   Point value=0.111419
   Estimated error=-0.0202358
Refinement cycle: 1
   Number of degrees of freedom=303
   Point value=0.110124
   Estimated error=-0.00791284
Refinement cycle: 2
   Number of degrees of freedom=457
   Point value=0.1092
   Estimated error=-0.00475766
Refinement cycle: 3
   Number of degrees of freedom=556
   Point value=0.106639
   Estimated error=-0.000775847
Refinement cycle: 4
   Number of degrees of freedom=713
   Point value=0.107309
   Estimated error=-0.0010652
Refinement cycle: 5
   Number of degrees of freedom=1119
   Point value=0.107202
   Estimated error=-0.000795717
Refinement cycle: 6
   Number of degrees of freedom=1580
   Point value=0.106944
   Estimated error=-0.000394584
Refinement cycle: 7
   Number of degrees of freedom=2262
   Point value=0.106749
   Estimated error=-0.000102753
Refinement cycle: 8
   Number of degrees of freedom=2820
   Point value=0.106684
   Estimated error=1.7076e-05


real	0m10.277s
user	0m10.188s
sys	0m0.068s
Delta   =     1.000000e-06
Epsilon =     1.000000e-17
Entering algorithm
Column representation
Forest-Tomlin update
Steep pricing
Fast ratiotest
No scaling
No simplifier
Weight starter
loading LP file test.mps
LP has 497	rows and
       614	columns
solving LP
Finished solving (status=1, objValue=1.727911e+05)
solution value is: 1.7279107e+05


real	0m0.020s
user	0m0.008s
sys	0m0.004s

real	0m0.360s
user	0m0.348s
sys	0m0.000s

************************************************************

CalculiX DEVELOPMENT VERSION, Copyright(C) 1998 Guido Dhondt
CalculiX comes with ABSOLUTELY NO WARRANTY. This is free
software, and you are welcome to redistribute it under
certain conditions, see gpl.htm

************************************************************

 nload =            0
 nforc =            9
 nboun =           63
 nk =          261
 ne =           32
 ne1d =            0
 ne2d =            0
 nmpc =            1
 nset =            5
 nalset =          100
 nmat =            1
 ncmat =            2
 ntmat =            1
 npmat =            0
 norien =            0
 nam =            0
 namtot =            0
 noprint =          261
 neprint =           32
 mint =            8
 ntrans =            0
 ncs =            0
 memmpc =            1

 STEP            1

 Static analysis was selected

Decascading the MPC's

Renumbering the nodes to decrease the profile:
 old profile =            0 *2147483647+       25326
 new profile =            0 *2147483647+        7317

Determining the structure of the matrix:
number of equations
720
number of nonzero matrix elements
38178
total length of the skyline
0*2147483647+58986
percentage of nonzero skyline elements
63.943322

 Printing nodal quantities

 Printing element quantities


real	0m0.054s
user	0m0.040s
sys	0m0.000s
hmmcalibrate -- calibrate HMM search statistics
HMMER 2.3 (May 2003)
Copyright (C) 1992-2003 HHMI/Washington University School of Medicine
Freely distributed under the GNU General Public License (GPL)
- - - - - - - - - - - - - - - - - - - - - - - - - - - - - - - - - - - -
HMM file:                 bombesin.hmm
Length distribution mean: 325
Length distribution s.d.: 200
Number of samples:        5000
random seed:              1546402430
histogram(s) saved to:    [not saved]
- - - - - - - - - - - - - - - - - - - - - - - - - - - - - - - -

HMM    : Bombesin
mu     :    -5.969279
lambda :     0.592886
max    :     8.342000
//

real	0m0.198s
user	0m0.192s
sys	0m0.000s

Sjeng version SPEC 1.0, Copyright (C) 2000-2005 Gian-Carlo Pascutto

SPEC Workload

  +----+----+----+----+----+----+----+----+
8 | *R |    |    |    | *K | *B |    | *R |
  +----+----+----+----+----+----+----+----+
7 |    |    |    | *N |    | *P | *P |    |
  +----+----+----+----+----+----+----+----+
6 | *P |    |    |    |    |    |    | *P |
  +----+----+----+----+----+----+----+----+
5 |    |    | *P |  P | *P |    |    | *Q |
  +----+----+----+----+----+----+----+----+
4 |  P | *P |    |    |  N |    |    |    |
  +----+----+----+----+----+----+----+----+
3 |    |    |    |  B |    |    |  P |  P |
  +----+----+----+----+----+----+----+----+
2 |    |  P |  Q |    |    |  P |    |    |
  +----+----+----+----+----+----+----+----+
1 |  R |    |    |    |  K |    |    |  R |
  +----+----+----+----+----+----+----+----+

     a    b    c    d    e    f    g    h

EPD: r3kb1r/3n1pp1/p6p/2pPp2q/Pp2N3/3B2PP/1PQ2P2/R3K2R w KQkq - bm d6; id "LCT2-POS-01";

Searching to 10 ply
Opening phase.
Time for move : 1000000
 2 -0.61       108 d6 ??
 2 -0.60       257 Qd1 !
 2 -0.48       490 Be2 !
 2 -0.39       615 Be2 Qg6 
 3 -0.04       949 Be2 !!
 3  0.10      1232 Be2 Qg6 O-O 
 3  0.10      2219 Be2 Qg6 O-O 
 4 -0.07      3017 Be2 Qg6 O-O Be7 
 4 -0.07      4689 Be2 Qg6 O-O Be7 
 5 -0.16      7202 Be2 Qg6 O-O b3 Qc4 Be7 
 5 -0.16     10503 Be2 Qg6 O-O b3 Qc4 Be7 
 6 -0.16     15048 Be2 Qg6 O-O b3 <Qc4> <Be7> 
 6 -0.16     28785 Be2 Qg6 O-O b3 <Qc4> <Be7> 
 7 -0.09     42444 Be2 Qg6 O-O Nb6 Rfd1 b3 Qd3 Be7 
 7 -0.09     74507 Be2 Qg6 O-O Nb6 Rfd1 b3 Qd3 Be7 
 8 -0.09    175520 Be2 Qg6 O-O Nb6 Rfd1 b3 <Qd3> <Be7> 
 8 -0.08    409470 d6 !
 8  0.21    551644 d6 Qf3 O-O f5 Nd2 Qd5 Nc4 Bxd6 Nxd6+ Qxd6 Bxf5 
 9  0.38   1100719 d6 Qf3 O-O h5 Rfd1 h4 Ng5 Qb7 Be4 
 9  0.38   1215246 d6 Qf3 O-O h5 Rfd1 h4 Ng5 Qb7 Be4 
10  0.43   2222565 d6 Qf3 O-O Qh5 Kh2 Qg6 Qc4 a5 Qd5 Rd8 
10  0.43   2481142 d6 Qf3 O-O Qh5 Kh2 Qg6 Qc4 a5 Qd5 Rd8 

  +----+----+----+----+----+----+----+----+
8 |    | *K |    | *R |    |    |    | *R |
  +----+----+----+----+----+----+----+----+
7 | *P | *P |    |    | *Q | *P | *P |    |
  +----+----+----+----+----+----+----+----+
6 |    |    |    | *B |    | *N |    | *P |
  +----+----+----+----+----+----+----+----+
5 |    |    |    | *P |  N |  Q |    |    |
  +----+----+----+----+----+----+----+----+
4 |    |    | *P |  P |    |  P |    |    |
  +----+----+----+----+----+----+----+----+
3 |    |    |  N |    |  P |    |    |    |
  +----+----+----+----+----+----+----+----+
2 |  P |  P |    |    |    |    |  P |  P |
  +----+----+----+----+----+----+----+----+
1 |    |  K |    |  R |  R |    |    |    |
  +----+----+----+----+----+----+----+----+

     a    b    c    d    e    f    g    h

EPD: 1k1r3r/pp2qpp1/3b1n1p/3pNQ2/2pP1P2/2N1P3/PP4PP/1K1RR3 b - - bm Bb4; id "LCT2-POS-02";

Searching to 11 ply
Middlegame phase.
Time for move : 1000000
 2 -0.39       361 Ka8 e4 
 2 -0.38       476 Bb4 !
 2 -0.29       956 Bb4 Qc2 
 3  0.00      1348 Bb4 Qc2 Ka8 
 3  0.00      1600 Bb4 Qc2 Ka8 
 4  0.02      3394 Bb4 Qc2 Ka8 g4 
 4  0.02      4026 Bb4 Qc2 Ka8 g4 
 5  0.12     11880 Bb4 Qc2 Ka8 g4 Rhe8 
 5  0.12     14615 Bb4 Qc2 Ka8 g4 Rhe8 
 6  0.07     25013 Bb4 Qc2 Ka8 g4 Qe6 h3 
 6  0.07     30237 Bb4 Qc2 Ka8 g4 Qe6 h3 
 7  0.16     77597 Bb4 Qc2 Ka8 h3 Rhe8 g3 Qc7 
 7  0.16     81580 Bb4 Qc2 Ka8 h3 Rhe8 g3 Qc7 
 8  0.12    149727 Bb4 Qc2 Ka8 g4 h5 g5 Ng4 h4 Nxe5 dxe5 
 8  0.12    169056 Bb4 Qc2 Ka8 g4 h5 g5 Ng4 h4 Nxe5 dxe5 
 9  0.12    363431 Bb4 Qc2 Ka8 g4 h5 g5 Ng4 h4 Nxe5 
 9  0.12    381811 Bb4 Qc2 Ka8 g4 h5 g5 Ng4 h4 Nxe5 
10  0.12    677790 Bb4 Qc2 Ka8 g4 h5 g5 Ng4 h4 Nxe5 dxe5 
10  0.12    799981 Bb4 Qc2 Ka8 g4 h5 g5 Ng4 h4 Nxe5 dxe5 
11  0.13   1863182 Bb4 Qc2 Ka8 g4 h5 g5 Ng4 g6 Bxc3 Qxc3 fxg6 Nxg6 
11  0.13   1939268 Bb4 Qc2 Ka8 g4 h5 g5 Ng4 g6 Bxc3 Qxc3 fxg6 Nxg6 

real	0m3.174s
user	0m3.108s
sys	0m0.060s
 Welcome to GemsFDTD

 *******PROBLEMSIZE*************************
 problemsize:         210         210         210
 *******CELLSIZE****************************
 dx:   1.0000000000000000E-002
 dy:   1.0000000000000000E-002
 dz:   1.0000000000000000E-002
 *******NSTEP*******************************
 nstep:           2
 *******PLANEWAVE*************************
 wavedir:   0.0000000000000000        0.0000000000000000        1.0000000000000000     
 Epol:   1.0000000000000000        0.0000000000000000       -0.0000000000000000     
 PulseType:           6
 param:   1.2000000000000000E-009   2.0000000000000001E-010  -1111.0999999999999     
 X0:   0.0000000000000000        0.0000000000000000        0.0000000000000000     
 Disttobound:          10
 ***************PEC*************************
 Number of components:        28686
 *******OUTERBOUNDARY***********************
 #cells:          12
 R0:    1.0000000000000000E-004
 proftype:           4
 *******CFL*********************************
 CFL:  0.94999999999999996     
 *******NFTRANS_TD**************************
 Disttobound:          15
 Theta_angles_no:           4
 Theta_interval:   180.00000000000000        360.00000000000000     
 Phi_angles_no:           1
 Phi_interval:   0.0000000000000000        0.0000000000000000     
 Filenamebase: sphere_td
 *******PROGRESS****************************
 progress,iteration:   100.00000000000000     


 dt*c0 =    5.4848275573014449E-003
 Number of timesteps to propagate one (x)-cell:  1.82
 Ret. time arrays allocated in Huygens_mod, bytes used =      7041024
 Searching for patches in PECinit:
        7172 X-patches found
        7172 Y-patches found
        7172 Z-patches found
 Fields allocated in UPML_mod, bytes used =    181570800

 pml_cells =           12
 Using polynomial profile for sigma, with degree           4
 Arrays allocated in NFT_mod, bytes used =     56998272
 Size of leading dimension for H-fields = 234
 Size of leading dimension for E-fields = 235
 Fields allocated in leapfrog_mod, bytes used =    618978696
 (   171260352  bytes of this is due to UPML)

 Total amount of Mbytes allocated =   824

 ============================================================
 Entering timestepping loop
 Total number of iterations are            2
 Starting timer in the beginning of the second time step
 Ending timestepping loop
 No. of Allocations (         150 )/(         150 ) deallocations.  Ok 

real	0m2.249s
user	0m2.028s
sys	0m0.212s
N = 33, 31 qubits required
Random seed: 5
Measured 819 (0.399902), fractional approximation is 2/5.
Odd denominator, trying to expand by 2.
Possible period is 10.
33 = 11 * 3

real	0m0.034s
user	0m0.032s
sys	0m0.000s
Setting Default Parameters...
Parsing Configfile foreman_test_encoder_baseline.cfg.....................................................................................................

------------------------------- JM 9.3 (FRExt) --------------------------------
 Input YUV file                    : foreman_qcif.yuv 
 Output H.264 bitstream            : foreman_qcif.264 
 YUV Format                        : YUV 4:2:0 
 Frames to be encoded I-P/B        : 25/0
 PicInterlace / MbInterlace        : 0/0
 Transform8x8Mode                  : 0
-------------------------------------------------------------------------------
  Frame  Bit/pic WP QP   SnrY    SnrU    SnrV    Time(ms) MET(ms) Frm/Fld   I D
-------------------------------------------------------------------------------
0000(NVB)     176 
0000(IDR)   21952 0 28  37.383  41.260  42.850        0       0     FRM    99
0001(P)      3024 0 28  36.868  41.036  42.720        0       0     FRM     0
0002(P)      4120 0 28  36.875  40.936  42.683        0       0     FRM     2
0003(P)      4552 0 28  36.851  40.950  42.670        0       0     FRM     2
0004(P)      4944 0 28  36.848  40.815  42.407        0       0     FRM     2
0005(P)      4448 0 28  36.775  40.691  42.386        0       0     FRM     1
0006(P)      3944 0 28  36.689  40.740  42.206        0       0     FRM     1
0007(P)      4040 0 28  36.698  40.821  42.262        0       0     FRM     0
0008(P)      4104 0 28  36.751  40.824  42.114        0       0     FRM     0
0009(P)      4576 0 28  36.724  40.773  41.954        0       0     FRM     1
0010(P)      4504 0 28  36.701  40.618  41.919        0       0     FRM     1
0011(P)      4120 0 28  36.695  40.745  41.882        0       0     FRM     0
0012(P)      5120 0 28  36.709  40.792  42.289        0       0     FRM     0
0013(P)      5680 0 28  36.651  40.754  42.503        0       0     FRM     1
0014(P)      5784 0 28  36.617  40.751  42.436        0       0     FRM     1
0015(P)      5528 0 28  36.598  40.758  42.418        0       0     FRM     0
0016(P)      4608 0 28  36.413  40.683  42.375        0       0     FRM     0
0017(P)      4384 0 28  36.410  40.609  42.341        0       0     FRM     0
0018(P)      3840 0 28  36.437  40.610  42.225        0       0     FRM     2
0019(P)      3432 0 28  36.484  40.704  42.084        0       0     FRM     0
0020(P)      3048 0 28  36.505  40.650  42.206        0       0     FRM     0
0021(P)      3304 0 28  36.571  40.518  42.277        0       0     FRM     1
0022(P)      3880 0 28  36.568  40.456  42.220        0       0     FRM     1
0023(P)      3640 0 28  36.518  40.410  42.155        0       0     FRM     2
0024(P)      3928 0 28  36.469  40.600  42.122        0       0     FRM     0
-------------------------------------------------------------------------------
 Total Frames:  25 (25) 
 LeakyBucketRate File does not exist; using rate calculated from avg. rate 
 Number Leaky Buckets: 8 
     Rmin     Bmin     Fmin 
   149400    21952    21952 
   186750    21952    21952 
   224100    21952    21952 
   261450    21952    21952 
   298800    21952    21952 
   336150    21952    21952 
   373500    21952    21952 
   410850    21952    21952 
-------------------------------------------------------------------------------
 Freq. for encoded bitstream       : 30
 Hadamard transform                : Used
 Image format                      : 176x144
 Error robustness                  : Off
 Search range                      : 16
 Total number of references        : 10
 References for P slices           : 10
 Total encoding time for the seq.  : 0.000 sec 
 Total ME time for sequence        : 0.000 sec 
 Sequence type                     : IPPP (QP: I 28, P 28) 
 Entropy coding method             : CAVLC
 Profile/Level IDC                 : (66,30)
 Search range restrictions         : none
 RD-optimized mode decision        : used
 Data Partitioning Mode            : 1 partition 
 Output File Format                : H.264 Bit Stream File Format 
 Residue Color Transform           : not used
------------------ Average data all frames  -----------------------------------
 SNR Y(dB)                         : 36.67
 SNR U(dB)                         : 40.74
 SNR V(dB)                         : 42.31
 Total bits                        : 124680 (I 21952, P 102552, NVB 176) 
 Bit rate (kbit/s)  @ 30.00 Hz     : 149.62
 Bits to avoid Startcode Emulation : 0 
 Bits for parameter sets           : 176 
-------------------------------------------------------------------------------
Exit JM 9 (FRExt) encoder ver 9.3 

real	0m8.959s
user	0m8.944s
sys	0m0.008s

real	0m0.609s
user	0m0.576s
sys	0m0.008s
MAIN_printInfo:
	grid size      : 100 x 100 x 130 = 1.30 * 10^6 Cells
	nTimeSteps     : 3000
	result file    : reference.dat
	action         : nothing
	simulation type: lid-driven cavity
	obstacle file  : 100_100_130_cf_a.of

LBM_showGridStatistics:
	nObstacleCells:  517648 nAccelCells:   18432 nFluidCells:  763920
	minRho:   1.0000 maxRho:   1.0000 mass: 1.300000e+06
	minU: 0.000000e+00 maxU: 0.000000e+00

timestep: 64
LBM_showGridStatistics:
	nObstacleCells:  517648 nAccelCells:   18432 nFluidCells:  763920
	minRho:   0.9474 maxRho:   1.0523 mass: 1.300000e+06
	minU: 0.000000e+00 maxU: 2.097068e-02

timestep: 128
LBM_showGridStatistics:
	nObstacleCells:  517648 nAccelCells:   18432 nFluidCells:  763920
	minRho:   0.9277 maxRho:   1.0736 mass: 1.300000e+06
	minU: 0.000000e+00 maxU: 2.877366e-02

timestep: 192
LBM_showGridStatistics:
	nObstacleCells:  517648 nAccelCells:   18432 nFluidCells:  763920
	minRho:   0.9208 maxRho:   1.0814 mass: 1.300000e+06
	minU: 0.000000e+00 maxU: 3.173334e-02

timestep: 256
LBM_showGridStatistics:
	nObstacleCells:  517648 nAccelCells:   18432 nFluidCells:  763920
	minRho:   0.9186 maxRho:   1.0846 mass: 1.300000e+06
	minU: 0.000000e+00 maxU: 3.246180e-02

timestep: 320
LBM_showGridStatistics:
	nObstacleCells:  517648 nAccelCells:   18432 nFluidCells:  763920
	minRho:   0.9176 maxRho:   1.0857 mass: 1.300000e+06
	minU: 0.000000e+00 maxU: 3.283998e-02

timestep: 384
LBM_showGridStatistics:
	nObstacleCells:  517648 nAccelCells:   18432 nFluidCells:  763920
	minRho:   0.9174 maxRho:   1.0860 mass: 1.300000e+06
	minU: 0.000000e+00 maxU: 3.302444e-02

timestep: 448
LBM_showGridStatistics:
	nObstacleCells:  517648 nAccelCells:   18432 nFluidCells:  763920
	minRho:   0.9175 maxRho:   1.0861 mass: 1.300000e+06
	minU: 0.000000e+00 maxU: 3.300700e-02

timestep: 512
LBM_showGridStatistics:
	nObstacleCells:  517648 nAccelCells:   18432 nFluidCells:  763920
	minRho:   0.9173 maxRho:   1.0863 mass: 1.300000e+06
	minU: 0.000000e+00 maxU: 3.293615e-02

timestep: 576
LBM_showGridStatistics:
	nObstacleCells:  517648 nAccelCells:   18432 nFluidCells:  763920
	minRho:   0.9167 maxRho:   1.0867 mass: 1.300000e+06
	minU: 0.000000e+00 maxU: 3.290508e-02

timestep: 640
LBM_showGridStatistics:
	nObstacleCells:  517648 nAccelCells:   18432 nFluidCells:  763920
	minRho:   0.9166 maxRho:   1.0869 mass: 1.300000e+06
	minU: 0.000000e+00 maxU: 3.301822e-02

timestep: 704
LBM_showGridStatistics:
	nObstacleCells:  517648 nAccelCells:   18432 nFluidCells:  763920
	minRho:   0.9169 maxRho:   1.0867 mass: 1.300000e+06
	minU: 0.000000e+00 maxU: 3.313051e-02

timestep: 768
LBM_showGridStatistics:
	nObstacleCells:  517648 nAccelCells:   18432 nFluidCells:  763920
	minRho:   0.9172 maxRho:   1.0865 mass: 1.300000e+06
	minU: 0.000000e+00 maxU: 3.309152e-02

timestep: 832
LBM_showGridStatistics:
	nObstacleCells:  517648 nAccelCells:   18432 nFluidCells:  763920
	minRho:   0.9172 maxRho:   1.0863 mass: 1.300000e+06
	minU: 0.000000e+00 maxU: 3.304479e-02

timestep: 896
LBM_showGridStatistics:
	nObstacleCells:  517648 nAccelCells:   18432 nFluidCells:  763920
	minRho:   0.9172 maxRho:   1.0864 mass: 1.300000e+06
	minU: 0.000000e+00 maxU: 3.300089e-02

timestep: 960
LBM_showGridStatistics:
	nObstacleCells:  517648 nAccelCells:   18432 nFluidCells:  763920
	minRho:   0.9171 maxRho:   1.0864 mass: 1.300000e+06
	minU: 0.000000e+00 maxU: 3.301236e-02

timestep: 1024
LBM_showGridStatistics:
	nObstacleCells:  517648 nAccelCells:   18432 nFluidCells:  763920
	minRho:   0.9169 maxRho:   1.0866 mass: 1.300000e+06
	minU: 0.000000e+00 maxU: 3.295124e-02

timestep: 1088
LBM_showGridStatistics:
	nObstacleCells:  517648 nAccelCells:   18432 nFluidCells:  763920
	minRho:   0.9168 maxRho:   1.0867 mass: 1.300000e+06
	minU: 0.000000e+00 maxU: 3.300285e-02

timestep: 1152
LBM_showGridStatistics:
	nObstacleCells:  517648 nAccelCells:   18432 nFluidCells:  763920
	minRho:   0.9168 maxRho:   1.0867 mass: 1.300000e+06
	minU: 0.000000e+00 maxU: 3.303623e-02

timestep: 1216
LBM_showGridStatistics:
	nObstacleCells:  517648 nAccelCells:   18432 nFluidCells:  763920
	minRho:   0.9171 maxRho:   1.0865 mass: 1.300000e+06
	minU: 0.000000e+00 maxU: 3.310011e-02

timestep: 1280
LBM_showGridStatistics:
	nObstacleCells:  517648 nAccelCells:   18432 nFluidCells:  763920
	minRho:   0.9172 maxRho:   1.0864 mass: 1.300000e+06
	minU: 0.000000e+00 maxU: 3.303886e-02

timestep: 1344
LBM_showGridStatistics:
	nObstacleCells:  517648 nAccelCells:   18432 nFluidCells:  763920
	minRho:   0.9172 maxRho:   1.0864 mass: 1.300000e+06
	minU: 0.000000e+00 maxU: 3.300583e-02

timestep: 1408
LBM_showGridStatistics:
	nObstacleCells:  517648 nAccelCells:   18432 nFluidCells:  763920
	minRho:   0.9170 maxRho:   1.0865 mass: 1.300000e+06
	minU: 0.000000e+00 maxU: 3.298546e-02

timestep: 1472
LBM_showGridStatistics:
	nObstacleCells:  517648 nAccelCells:   18432 nFluidCells:  763920
	minRho:   0.9170 maxRho:   1.0866 mass: 1.300000e+06
	minU: 0.000000e+00 maxU: 3.301032e-02

timestep: 1536
LBM_showGridStatistics:
	nObstacleCells:  517648 nAccelCells:   18432 nFluidCells:  763920
	minRho:   0.9169 maxRho:   1.0866 mass: 1.300000e+06
	minU: 0.000000e+00 maxU: 3.301510e-02

timestep: 1600
LBM_showGridStatistics:
	nObstacleCells:  517648 nAccelCells:   18432 nFluidCells:  763920
	minRho:   0.9170 maxRho:   1.0866 mass: 1.300000e+06
	minU: 0.000000e+00 maxU: 3.302893e-02

timestep: 1664
LBM_showGridStatistics:
	nObstacleCells:  517648 nAccelCells:   18432 nFluidCells:  763920
	minRho:   0.9170 maxRho:   1.0865 mass: 1.300000e+06
	minU: 0.000000e+00 maxU: 3.304697e-02

timestep: 1728
LBM_showGridStatistics:
	nObstacleCells:  517648 nAccelCells:   18432 nFluidCells:  763920
	minRho:   0.9171 maxRho:   1.0864 mass: 1.300000e+06
	minU: 0.000000e+00 maxU: 3.304751e-02

timestep: 1792
LBM_showGridStatistics:
	nObstacleCells:  517648 nAccelCells:   18432 nFluidCells:  763920
	minRho:   0.9171 maxRho:   1.0864 mass: 1.300000e+06
	minU: 0.000000e+00 maxU: 3.302014e-02

timestep: 1856
LBM_showGridStatistics:
	nObstacleCells:  517648 nAccelCells:   18432 nFluidCells:  763920
	minRho:   0.9171 maxRho:   1.0865 mass: 1.300000e+06
	minU: 0.000000e+00 maxU: 3.300117e-02

timestep: 1920
LBM_showGridStatistics:
	nObstacleCells:  517648 nAccelCells:   18432 nFluidCells:  763920
	minRho:   0.9170 maxRho:   1.0866 mass: 1.300000e+06
	minU: 0.000000e+00 maxU: 3.300469e-02

timestep: 1984
LBM_showGridStatistics:
	nObstacleCells:  517648 nAccelCells:   18432 nFluidCells:  763920
	minRho:   0.9170 maxRho:   1.0866 mass: 1.300000e+06
	minU: 0.000000e+00 maxU: 3.301767e-02

timestep: 2048
LBM_showGridStatistics:
	nObstacleCells:  517648 nAccelCells:   18432 nFluidCells:  763920
	minRho:   0.9170 maxRho:   1.0866 mass: 1.300000e+06
	minU: 0.000000e+00 maxU: 3.302914e-02

timestep: 2112
LBM_showGridStatistics:
	nObstacleCells:  517648 nAccelCells:   18432 nFluidCells:  763920
	minRho:   0.9170 maxRho:   1.0865 mass: 1.300000e+06
	minU: 0.000000e+00 maxU: 3.303781e-02

timestep: 2176
LBM_showGridStatistics:
	nObstacleCells:  517648 nAccelCells:   18432 nFluidCells:  763920
	minRho:   0.9171 maxRho:   1.0865 mass: 1.300000e+06
	minU: 0.000000e+00 maxU: 3.303525e-02

timestep: 2240
LBM_showGridStatistics:
	nObstacleCells:  517648 nAccelCells:   18432 nFluidCells:  763920
	minRho:   0.9171 maxRho:   1.0865 mass: 1.300000e+06
	minU: 0.000000e+00 maxU: 3.302478e-02

timestep: 2304
LBM_showGridStatistics:
	nObstacleCells:  517648 nAccelCells:   18432 nFluidCells:  763920
	minRho:   0.9171 maxRho:   1.0865 mass: 1.300000e+06
	minU: 0.000000e+00 maxU: 3.301070e-02

timestep: 2368
LBM_showGridStatistics:
	nObstacleCells:  517648 nAccelCells:   18432 nFluidCells:  763920
	minRho:   0.9170 maxRho:   1.0865 mass: 1.300000e+06
	minU: 0.000000e+00 maxU: 3.300872e-02

timestep: 2432
LBM_showGridStatistics:
	nObstacleCells:  517648 nAccelCells:   18432 nFluidCells:  763920
	minRho:   0.9170 maxRho:   1.0866 mass: 1.300000e+06
	minU: 0.000000e+00 maxU: 3.301678e-02

timestep: 2496
LBM_showGridStatistics:
	nObstacleCells:  517648 nAccelCells:   18432 nFluidCells:  763920
	minRho:   0.9170 maxRho:   1.0866 mass: 1.300000e+06
	minU: 0.000000e+00 maxU: 3.302955e-02

timestep: 2560
LBM_showGridStatistics:
	nObstacleCells:  517648 nAccelCells:   18432 nFluidCells:  763920
	minRho:   0.9170 maxRho:   1.0865 mass: 1.300000e+06
	minU: 0.000000e+00 maxU: 3.303291e-02

timestep: 2624
LBM_showGridStatistics:
	nObstacleCells:  517648 nAccelCells:   18432 nFluidCells:  763920
	minRho:   0.9171 maxRho:   1.0865 mass: 1.300000e+06
	minU: 0.000000e+00 maxU: 3.302945e-02

timestep: 2688
LBM_showGridStatistics:
	nObstacleCells:  517648 nAccelCells:   18432 nFluidCells:  763920
	minRho:   0.9171 maxRho:   1.0865 mass: 1.300000e+06
	minU: 0.000000e+00 maxU: 3.302168e-02

timestep: 2752
LBM_showGridStatistics:
	nObstacleCells:  517648 nAccelCells:   18432 nFluidCells:  763920
	minRho:   0.9171 maxRho:   1.0865 mass: 1.300000e+06
	minU: 0.000000e+00 maxU: 3.301631e-02

timestep: 2816
LBM_showGridStatistics:
	nObstacleCells:  517648 nAccelCells:   18432 nFluidCells:  763920
	minRho:   0.9170 maxRho:   1.0865 mass: 1.300000e+06
	minU: 0.000000e+00 maxU: 3.301464e-02

timestep: 2880
LBM_showGridStatistics:
	nObstacleCells:  517648 nAccelCells:   18432 nFluidCells:  763920
	minRho:   0.9170 maxRho:   1.0865 mass: 1.300000e+06
	minU: 0.000000e+00 maxU: 3.301908e-02

timestep: 2944
LBM_showGridStatistics:
	nObstacleCells:  517648 nAccelCells:   18432 nFluidCells:  763920
	minRho:   0.9170 maxRho:   1.0865 mass: 1.300000e+06
	minU: 0.000000e+00 maxU: 3.302544e-02

LBM_showGridStatistics:
	nObstacleCells:  517648 nAccelCells:   18432 nFluidCells:  763920
	minRho:   0.9170 maxRho:   1.0865 mass: 1.300000e+06
	minU: 0.000000e+00 maxU: 3.302912e-02


real	6m51.658s
user	6m51.512s
sys	0m0.096s
OMNeT++ Discrete Event Simulation  (C) 1992-2003 Andras Varga
See the license for distribution terms and warranty disclaimer
Setting up Cmdenv (command-line user interface)...

Preparing for Run #1...
Setting up network `twoHosts'...
Running simulation...
twoHosts.hostA.srv registering DSAP 241
twoHosts.hostB.srv registering DSAP 241
twoHosts.hostA.cli registering DSAP 240
twoHosts.hostB.cli registering DSAP 240
** Event #0   T=0.0000000  ( 0.00s)
     Messages:  created: 20
** Event #100000   T=14.836799  (14.83s)
     Messages:  created: 48540
** Event #200000   T=29.571801  (29.57s)
     Messages:  created: 97064
** Event #300000   T=44.401886  (44.40s)
     Messages:  created: 145570
** Event #400000   T=59.434241  (59.43s)
     Messages:  created: 194096
** Event #500000   T=74.211485 ( 1m 14s)
     Messages:  created: 242608
** Event #600000   T=89.306257 ( 1m 29s)
     Messages:  created: 291116
** Event #700000   T=103.92283 ( 1m 43s)
     Messages:  created: 339640
** Event #800000   T=119.27061 ( 1m 59s)
     Messages:  created: 388154
** Event #900000   T=133.81414 ( 2m 13s)
     Messages:  created: 436666
** Event #1000000   T=148.38048 ( 2m 28s)
     Messages:  created: 485196
** Event #1100000   T=163.10847 ( 2m 43s)
     Messages:  created: 533702
** Event #1200000   T=177.83484 ( 2m 57s)
     Messages:  created: 582219
<!> Simulation time limit reached -- simulation stopped.

Calling finish() at end of Run #1...

End run of OMNeT++

real	0m0.286s
user	0m0.276s
sys	0m0.000s
Small Path Finding Library
Read configuration file
Create ways
lake.bin
Create regional map time : 0

Create ways time : 0
Ways quantity : 2318
Total way length : 607363

Create reg ways time : 0
Reg ways quantity : 21248
Total reg way length : 1005982

Create river ways time : 0
River ways quantity : 250
Total river way length : 39000
Create land ways time : 0
Land ways quantity : 250
Total land way length : 54956

Create ways
Random map
Create regional map time : 0

Create ways time : 0
Ways quantity : 3875
Total way length : 612234

Create reg ways time : 0
Reg ways quantity : 29220
Total reg way length : 1009379

Create river ways time : 0
River ways quantity : 0
Total river way length : 0
Create land ways time : 0
Land ways quantity : 0
Total land way length : 0


real	0m7.266s
user	0m7.256s
sys	0m0.008s
 -------------- FATAL CALLED ---------------
 module_ra_rrtm: error reading unit   10                                         
 -------------------------------------------
STOP wrf_abort

real	0m0.114s
user	0m0.068s
sys	0m0.016s
INFO: spec_main_live_pretend.c(120): Processing 1 beamsets
FATAL_ERROR: "spec_main_live_pretend.c", line 132: Unable to read ctlfile

real	0m0.002s
user	0m0.000s
sys	0m0.000s

Warning.Occurred at unknown file , line 0 , column {null}.An exception occurred! Type:RuntimeException, Message:Warning: The primary document entity could not be opened. Id=100mb.xsd
<html xmlns:spec="http://www.schemaTest.org/100mb">
<body>
<h3>Country: africa</h3>
<table border="1">
<tr>
<th>Item</th><th>Name</th><th>Location</th><th>Quantity</th><th>Payment</th><th>Description</th><th>Shipping</th><th>Mailing</th>
</tr>
<tr valign="top">
<td>item0</td><td>duteous nine eighteen </td><td>United States</td><td>1</td><td>Creditcard</td><td>(0) 
			page rous lady idle authority capt professes stabs monster petition heave humbly removes rescue runs shady peace most piteous worser oak assembly holes patience but malice whoreson mirrors master tenants smocks yielded <i> officer embrace such fears distinction attires </i> 
			<p>Encrypted Version</p>			
  seritta noitcnitsid sraef hcus ecarbme reciffo  dedleiy skcoms stnanet retsam srorrim noserohw ecilam tub ecneitap seloh ylbmessa kao resrow suoetip tsom ecaep ydahs snur eucser sevomer ylbmuh evaeh noititep retsnom sbats sesseforp tpac ytirohtua eldi ydal suor egap			
<br>
<br>(I) 
			shepherd noble supposed dotage humble servilius bitch theirs venus dismal wounds gum merely raise red breaks earth god folds closet captain dying reek 
			<p>Encrypted Version</p>			
 keer gniyd niatpac tesolc sdlof dog htrae skaerb der esiar ylerem mug sdnuow lamsid sunev srieht hctib suilivres elbmuh egatod desoppus elbon drehpehs			
<br>
<br>
</td><td>Will ship internationally, See description for charges</td><td>
<p>
<b>To: </b>Mechthild Renear <a href="mailto:Renear@acm.org">Renear@acm.org</a>
<br>
<b>From: </b>Dominic Takano <a href="mailto:Takano@yahoo.com">Takano@yahoo.com</a>
<br>
<b>Date: </b>10/12/1999<br>
<b>Note: </b>
<br>
			asses scruple learned crowns preventions half whisper logotype weapons doors factious already pestilent sacks dram atwain girdles deserts flood park lest graves discomfort sinful conceiv therewithal motion stained preventions greatly suit observe sinews enforcement <emph> armed </emph> gold gazing set almost catesby turned servilius cook doublet preventions shrunk 
			<p>Encrypted Version</p>			
 knurhs snoitneverp telbuod kooc suilivres denrut ybsetac tsomla tes gnizag dlog  demra  tnemecrofne swenis evresbo tius yltaerg snoitneverp deniats noitom lahtiwereht viecnoc lufnis trofmocsid sevarg tsel krap doolf stresed seldrig niawta mard skcas tnelitsep ydaerla suoitcaf srood snopaew epytogol repsihw flah snoitneverp snworc denrael elpurcs sessa			
</p>
</td>
</tr>
</table>
<h3>Stats on this continent</h3>
<table border="1">
<tr valign="top">
<td>Number of nodes in this continent:</td><td>Categories Listed</td><td>Total Quantities</td>
</tr>
<tr valign="top">
<td>1</td><td>
<br>(0) category0<br>
<br>(I) category0<br>
<br>(II) category0<br>
<br>(III) category0<br>
<br>(IV) category0<br>
</td><td>1</td>
</tr>
</table>
<h3>Country: asia</h3>
<table border="1">
<tr>
<th>Item</th><th>Name</th><th>Location</th><th>Quantity</th><th>Payment</th><th>Description</th><th>Shipping</th><th>Mailing</th>
</tr>
<tr valign="top">
<td>item1</td><td>great </td><td>United States</td><td>1</td><td>Money order, Cash</td><td></td><td>Will ship internationally</td><td>
<p>
<b>To: </b>Lanju Takano <a href="mailto:Takano@itc.it">Takano@itc.it</a>
<br>
<b>From: </b>Fumitaka Cenzer <a href="mailto:Cenzer@savera.com">Cenzer@savera.com</a>
<br>
<b>Date: </b>02/24/2000<br>
<b>Note: </b>
<br>
			entreaty hath fowl prescience bounds roof fiend intellect boughs caught add jests feelingly doubt trojans wisdom greatness tune worship doors fields reads canst france pay progeny wisdom stir mov impious promis clothes hangman trebonius choose men fits preparation <i> benefit since eclipse gates </i> 
			<p>Encrypted Version</p>			
  setag espilce ecnis tifeneb  noitaraperp stif nem esoohc suinobert namgnah sehtolc simorp suoipmi vom rits modsiw ynegorp yap ecnarf tsnac sdaer sdleif srood pihsrow enut ssentaerg modsiw snajort tbuod ylgnileef stsej dda thguac shguob tcelletni dneif foor sdnuob ecneicserp lwof htah ytaertne			
</p>
<p>
<b>To: </b>Ioana Blumberg <a href="mailto:Blumberg@conclusivestrategies.com">Blumberg@conclusivestrategies.com</a>
<br>
<b>From: </b>Papa Godskesen <a href="mailto:Godskesen@uwindsor.ca">Godskesen@uwindsor.ca</a>
<br>
<b>Date: </b>08/02/2001<br>
<b>Note: </b>
<br>
			jealousy back greg folded gauntlets conduct hardness across sickness peter enough royal herb embrace piteous die servilius avoid <i> laying chance dungeons pleasant thyself fellow purse steward heaven ambassador terrible doubtfully </i> milk sky clouds unbraced put sacrifices seas childish longer flout heavy pitch rosalind orderly music delivery appease 
			<p>Encrypted Version</p>			
 esaeppa yreviled cisum ylredro dnilasor hctip yvaeh tuolf regnol hsidlihc saes secifircas tup decarbnu sduolc yks klim  ylluftbuod elbirret rodassabma nevaeh drawets esrup wollef flesyht tnasaelp snoegnud ecnahc gniyal  diova suilivres eid suoetip ecarbme breh layor hguone retep ssenkcis ssorca ssendrah tcudnoc steltnuag dedlof gerg kcab ysuolaej			
</p>
</td>
</tr>
</table>
<h3>Stats on this continent</h3>
<table border="1">
<tr valign="top">
<td>Number of nodes in this continent:</td><td>Categories Listed</td><td>Total Quantities</td>
</tr>
<tr valign="top">
<td>1</td><td>
<br>(0) category0<br>
<br>(I) category0<br>
<br>(II) category0<br>
<br>(III) category0<br>
<br>(IV) category0<br>
<br>(V) category0<br>
</td><td>1</td>
</tr>
</table>
<h3>Country: australia</h3>
<table border="1">
<tr>
<th>Item</th><th>Name</th><th>Location</th><th>Quantity</th><th>Payment</th><th>Description</th><th>Shipping</th><th>Mailing</th>
</tr>
<tr valign="top">
<td>item2</td><td>scarce brook </td><td>United States</td><td>1</td><td></td><td>(0) 
			senses concave valiant star further instruments bankrupts countrymen horrid costard youth necessity tend curiously waken witness navy there honest interest perceive defendant chief traffic where nuptial descent travel prepare agreed voices swears remember peerless doing <i> preparation rejoice </i> 
			<p>Encrypted Version</p>			
  eciojer noitaraperp  gniod sselreep rebmemer sraews seciov deerga eraperp levart tnecsed laitpun erehw ciffart feihc tnadnefed eviecrep tseretni tsenoh ereht yvan ssentiw nekaw ylsuoiruc dnet ytissecen htuoy dratsoc dirroh nemyrtnuoc stpurknab stnemurtsni rehtruf rats tnailav evacnoc sesnes			
<br>
<br>(I) 
			swear canker barbarian parching coxcomb excess conspiring nobles sounded consider sayings fishified prime may spirit <emph> untruths misgives choughs mew here garments tenfold </emph> error discontent hung beatrice straight muse shame deep twice mann maecenas any conveyance fingers whereupon child case <i> season presently victory women beating </i> deprive almost wed dreams slew reveal 
			<p>Encrypted Version</p>			
 laever wels smaerd dew tsomla evirped  gnitaeb nemow yrotciv yltneserp nosaes  esac dlihc nopuerehw sregnif ecnayevnoc yna saneceam nnam eciwt peed emahs esum thgiarts ecirtaeb gnuh tnetnocsid rorre  dlofnet stnemrag ereh wem shguohc sevigsim shturtnu  tirips yam emirp deifihsif sgniyas redisnoc dednuos selbon gniripsnoc ssecxe bmocxoc gnihcrap nairabrab reknac raews			
<br>
<br>(II) 
			spotted attend burden camillo field enlarge stead corporal ground tormenting <b> naturally sanctuary riddle exile coming awake senseless chance famous albans </b> service cricket limb from clouds amongst shore penker defend quantity dumb churlish uncover swung eros figur sulphur sky birth stare negligent unction shield instance ambition gate injury fort put infants find slavish hugh see afterwards slanders chides eyes minds alb loved endure combating voyage 
			<p>Encrypted Version</p>			
 egayov gnitabmoc erudne devol bla sdnim seye sedihc srednals sdrawretfa ees hguh hsivals dnif stnafni tup trof yrujni etag noitibma ecnatsni dleihs noitcnu tnegilgen erats htrib yks ruhplus rugif sore gnuws revocnu hsilruhc bmud ytitnauq dnefed reknep erohs tsgnoma sduolc morf bmil tekcirc ecivres  snabla suomaf ecnahc sselesnes ekawa gnimoc elixe elddir yrautcnas yllarutan  gnitnemrot dnuorg laroproc daets egralne dleif ollimac nedrub dnetta dettops			
<br>
<br>(III) <p>Encrypted Version</p>
<br>
<br>(IV) <p>Encrypted Version</p>
<br>
<br>
</td><td>Will ship internationally</td><td>
<p>
<b>To: </b>Lesley Jeris <a href="mailto:Jeris@zambeel.com">Jeris@zambeel.com</a>
<br>
<b>From: </b>Aspi L'Ecuyer <a href="mailto:L'Ecuyer@intersys.com">L'Ecuyer@intersys.com</a>
<br>
<b>Date: </b>10/09/1998<br>
<b>Note: </b>
<br>
			necessities chains rosencrantz house heed course lawn diest unvirtuous supposed sees chough swor numbers game roman soundest wrestler sky lodovico beast shivers desolate norfolk forgot paulina wars george while beggar sheath thursday capable presently his protector father orchard enemies believe drains tokens prison charge cloud stab york mild scene true devotion confidence hundred those guiltless pricks sort himself mutiny officers directive wholesome edge acts dion ride draw brings custom chapless beside sex dowry casca goods priam blasphemy prick octavia brain curer thinkest idiot inward missing conspiracy tents scab inundation caesar officer dramatis 
			<p>Encrypted Version</p>			
 sitamard reciffo raseac noitadnuni bacs stnet ycaripsnoc gnissim drawni toidi tsekniht reruc niarb aivatco kcirp ymehpsalb mairp sdoog acsac yrwod xes ediseb sselpahc motsuc sgnirb ward edir noid stca egde emoselohw evitcerid sreciffo ynitum flesmih tros skcirp sseltliug esoht derdnuh ecnedifnoc noitoved eurt enecs dlim kroy bats duolc egrahc nosirp snekot sniard eveileb seimene drahcro rehtaf rotcetorp sih yltneserp elbapac yadsruht htaehs raggeb elihw egroeg sraw aniluap togrof klofron etalosed srevihs tsaeb ocivodol yks reltserw tsednuos namor emag srebmun rows hguohc sees desoppus suoutrivnu tseid nwal esruoc deeh esuoh ztnarcnesor sniahc seitissecen			
</p>
</td>
</tr>
</table>
<h3>Stats on this continent</h3>
<table border="1">
<tr valign="top">
<td>Number of nodes in this continent:</td><td>Categories Listed</td><td>Total Quantities</td>
</tr>
<tr valign="top">
<td>1</td><td>
<br>(0) category0<br>
<br>(I) category0<br>
</td><td>1</td>
</tr>
</table>
<h3>Country: europe</h3>
<table border="1">
<tr>
<th>Item</th><th>Name</th><th>Location</th><th>Quantity</th><th>Payment</th><th>Description</th><th>Shipping</th><th>Mailing</th>
</tr>
<tr valign="top">
<td>item3</td><td>abhorr execution beckon rue </td><td>Uzbekistan</td><td>1</td><td>Money order, Creditcard, Cash</td><td>(0) 
				<i> perjur kills insanie unfortunate conjuration deeper confounded belied first guard </i> pale profits height desir ashore france strength kept entrench poisons worth fought ignorance moody poniards speaks jack egg offspring victory food double emperor round jewel abbey apparel untainted lass protest start wings acquit lake lady battles further low thief try brook cake mounted officers dean shrunk lowness dew sandy prologue armies suspicion eighty advance thankfulness albany ended experience halt doubted wert kingdom fiend directed pair perhaps 
				<p>Encrypted Version</p>				
 spahrep riap detcerid dneif modgnik trew detbuod tlah ecneirepxe dedne ynabla ssenlufknaht ecnavda ythgie noicipsus seimra eugolorp ydnas wed ssenwol knurhs naed sreciffo detnuom ekac koorb yrt feiht wol rehtruf selttab ydal ekal tiuqca sgniw trats tsetorp ssal detniatnu lerappa yebba lewej dnuor rorepme elbuod doof yrotciv gnirpsffo gge kcaj skaeps sdrainop ydoom ecnarongi thguof htrow snosiop hcnertne tpek htgnerts ecnarf erohsa rised thgieh stiforp elap  draug tsrif deileb dednuofnoc repeed noitarujnoc etanutrofnu einasni sllik rujrep 				
<br>
<br>(I) 
				prayer odds rend condemn conrade swearing dispos losses boar little from thought different couch respected human robe dictynna later pays edward babe distemper bards damned mayst sustain while self alcibiades listen weak soil <i> view presume loggets feed </i> afoot yields erection balthasar fathers datchet thankless lear cause evil cheerfully instance tarried because cough ancient testimony tarquin cousin reported porter beastly jade bark sex slack lear devil devoured amiable mason moss shoulders labour meanest feign eggs encount forbid enobarbus halters nam emilia fiends bearing food inheritor wiser <emph> hedge </emph> functions there capital greasy dark crush your sequest between devout thou strikes demand dost reverent conference least told ado modena jealousy nunnery mistrust nightly worthy closes tall proudly fierce receive nearness safer jacks shut dire mates wind unfortunate monsieur parcels sauced extremities throat dog empty treasury etc detested stand taxations edges mourner sue knavery unlook perseus diadem heartily peer tut compounded art reconcile study thought cockatrice money pity intend thing claud edmund throws torments ropes contrive story slain advise lecher ardea relics keeping treads buckingham defences lag neighbour ourself marshal disordered moderate venus afeard article rot hazards craft crowns <emph> plainness patient </emph> lying knowledge diseases meritorious medicine instead lid happy without them bands answer 
				<p>Encrypted Version</p>				
[...]
871760
272000
358754
262101
1917738
2043727
1904000
516363
1124362
244931
70924
67381
1961442
1341033
485597
147679
1911142
1767479
1824011
1673179
15549
1222977
836051
166236
440859
1895995
1150128
1169696
326471
404444
176376
892604
381124
1440944
331735
804285
807196
584208
665613
774499
1948648
1356127
222332
1175511
1799659
1999337
1304320
1951154
459585
1233766
1941901
589092
828674
1116228
751578
1746462
835732
948398
128688
159320
943728
1519850
1461126
1608544
1192284
1070827
1605330
420089
978492
69981
608569
503073
996622
1669247
1528912
154143
1999716
1532556
2015700
1885580
184775
733864
988774
850337
661517
1570385
872001
226298
238690
1668856
1088475
1259462
1681974
392038
550162
1894130
524227
185082
1797888
907135
894111
1146832
1072188
1959191
376412
71371
1447530
441287
898617
1093502
1772131
139624
1697870
1309104
433332
317362
908051
1962193
1678815
538255
424492
1238103
1109833
1818973
968200
1167996
423706
314098
1337621
499618
269232
947171
2039944
1818219
598553
97231
1901250
1403982
1705951
1956970
1947631
648623
1935526
1993083
651605
858189
1563759
113218
258719
375142
1251813
105188
455197
1211135
464181
658051
654774
870317
587215
1200
1730643
1214289
233799
1388034
1958897
1571177
1900880
1333289
1405721
212945
1096379
974333
1842721
745759
207862
1686738
587799
1627704
1671958
2026550
1980051
761048
1159787
1721725
837451
1169504
1185711
1204394
1849267
177871
1439621
623530
39375
267587
1960428
689243
612311
1956688
1311662
419315
244616
914715
1317414
844213
130616
1839328
1073584
834895
1216331
1786539
632676
152814
141121
228223
1871767
1506577
1606958
1162971
1977789
1650034
151038
1011776
373574
1527280
1403403
162394
1417749
1662817
2003929
658801
977233
1434717
129434
414572
406416
543688
1628731
503399
325344
1937220
1786151
240965
1001878
1953667
1742733
1660429
769504
1978428
99607
863982
614027
68886
641003
849529
1415368
564987
1203938
331177
1668935
367739
1770689
473480
1296177
256537
569775
1801227
1722331
768723
1141906
190686
1784829
554895
1575717
371523
1881618
1175243
1390956
1922191
1104074
1282837
1343833
446266
602173
1542739
1118715
1597631
52456
979920
1540862
295489
1920235
997288
577857
420599
1355518
222778
484307
995163
1726998
1393584
1032267
687869
50033
1210126
1940246
1442706
1287647
260509
1791630
172162
1742797
681187
376648
1993334
779843
1655787
572217
1887438
682897
450261
161190
1660718
1540369
204843
99671
1941347
1523273
1640392
1925647
1837955
515617
874079
324954
1533793
271571
1341851
1956780
814891
884490
1233968
1241919
1754123
578081
85472
871236
1700593
2019599
1894341
2025108
276726
1973193
176018
1016111
1538744
1568962
1538719
1146069
529050
1369668
477685
282606
438421
1869490
97040
730041
225313
77113
1696677
1736624
1388322
647541
139244
1455785
1964125
1376877
805787
1479379
1192362
333021
1936857
1833715
935656
1011079
939954
1570119
504459
1765106
846313
618667
224275
1060127
2002303
2010450
1727336
924232
1531775
1182367
289148
1854082
1230511
489958
1754112
386734
1522933
18579
952510
1660625
2027940
758158
1736971
1071063
1478973
508614
1963397
1437272
60359
685270
1428311
998269
680546
1888159
514951
1976881
726513
313965
1145123
1018499
722347
1988803
395918
237281
521572
615953
1717960
1041336
1560752
771717
249889
1481491
1878732
1824891
89727
703436
1584425
1324637
1401569
67835
1411417
1734284
974455
1855605
201372
1161230
1395948
1843397
1863839
1376266
774609
1762908
778418
231260
1719414
901568
1534571
1055969
1740475
567949
1836113
280713
1390246
232170
626063
1652837
142801
1841687
1795788
430528
293190
140794
880026
1975686
1125503
987839
1521436
1484155
1596941
743537
1768214
1889983
460558
1203611
982195
860773
1984160
181112
615688
1357551
1626423
620842
1972912
1600438
128801
17642
1589452
1854473
1655256
1892426
561227
1489407
1802421
1318612
496978
963081
1154967
569581
585780
452945
223914
1138915
1131525
1854106
1636158
404643
1466356
1446653
34537
876870
143851
1063131
1277223
1183753
1062313
1868850
1624338
408207
1977856
725577
979117
328297
370087
267844
137911
1568270
148108
925865
299843
1365619
13511
1798988
951157
1439047
1214254
1687241
849997
1090910
1227126
942612
1185715
1256229
606555
1463220
2001851
560545
272865
558994
830945
370936
196210
411920
886799
1119586
1895725
699527
1420685
1862290
1965489
1770136
1417230
1141360
1263337
1275488
697441
1184440
320662
1077030
1408764
158829
890941
1117026
1872236
1185100
1175524
2012869
1417004
1431287
1877538
192919
404524
1506670
1118426
830293
1699707
1457390
264900
1861849
698981
429067
306718
184139
293657
1860458
1885932
2008273
1993696
719167
1784575
388622
493097
1257738
1383788
225437
107212
1708495
1707190
258346
248381
707496
189173
918430
267502
536786
307613
889370
1332627
521079
511619
1262857
1397731
1098757
2025873
838153
688010
373082
1459827
269286
1845579
1680650
658876
185972
376628
1658261
1194642
1800661
406313
865285
2030911
1540407
843367
244805
2042150
2025658
1329990
1264359
28293
379887
1142201
1064069
657783
251120
1682829
419075
305257
201691
369740
571494
2018887
156635
881662
798618
1828637
1607215
1383196
513096
1516490
272740
516762
1691359
414237
920375
186852
826238
1131236
1097010
1343229
537641
348979
1862580
687039
434621
1499959
970857
765784
891863
225600
807041
30590
65535
1661976
148737
1256582
381235
1272194
634779
693694
1697497
1187857
398966
254364
911806
1575472
362793
563313
1743427
1040883
90058
127207
1891481
1048496
1069130
1752300
661020
1409246
68899
858637
890668
614733
1694441
1026887
388177
1201579
1647997
719243
1006249
1687771
1558041
257393
613626
1521792
1320096
868164
1267878
1821091
1750725
806818
371295
89324
83097
1911229
1182744
488213
1101938
195452
2014811
1290785
1798703
272375
518678
1117066
497252
1472202
1404641
498146
113517
1179946
559425
1934941
356979
1138045
849588
367541
478931
737209
1904516
1004593
476748
918827
797746
1492220
1970112
1654468
944378
160930
1382503
1154248
788834
1214597
1306142
1855488
280636
89221
391374
1682826
360122
723080
2011355
543440
1558836
1339181
94994
1159312
1920552
189272
540942
536519
1966064
1196546
1026622
30749
693092
1819311
505115
502757
1822766
1233562
572533
1045393
124307
258777
1356994
453683
341162
1542954
643147
19513
273141
1097062
173858
1575839
383686
1502708
76025
1838969
1181960
1640931
747513
1015720
1113166
494245
86660
350991
855982
1327357
19153
363773
649044
821012
1366794
1328393
1049886
1909020
931099
204838
17798
108342
228966
32970
1157547
929618
1941230
1609364
640262
691425
417774
975610
787397
1645681
716489
1830781
768721
1093981
1628410
1252526
1857640
1628883
1010567
522970
1573572
1193829
423549
1777432
1170295
142917
1735255
908781
1945011
1658039
1561634
1255050
1270142
961147
1421049
1837983
986804
497980
1409691
1406670
1824934
815926
1896534
2015186
1450644
1576111
853970
285891
349278
733322
75968
874396
1565852
468073
529833
197379
1635664
293625
1315877
1624014
1093991
1795282
105467
1052795
1642243
272690
1719184
1126083
498671
740745
1957123
433278
1461521
56343
765918
1103452
1061483
202249
1553683
738358
745155
287440
1818954
650581
35842
269973
1110741
691321
714174
1833669
162317
119785
27395
1669314
599342
1063007
1238212
895434
853034
931424
1575838
369758
875328
852166
677826
1233714
1076639
989645
1152037
481201
2034082
1595410
1635441
632984
1238957
1128840
1777983
180431
1456458
981359
1152461
1469088
259383
1298300
1127843
1412429
310874
397946
1557546
126499
244303
1800324
892367
493520
186260
1124011
493219
1272946
988862
283362
849164
1430651
1429446
1645023
1936107
1510214
1292945
1234679
911076
1604372
699214
251595
1472477
1936282
359914
1323061
1533919
340186
1528374
1353065
2011990
976178
79697
74046
1347229
183997
2001746
837118
1720248
581526
635812
1662109
336796
1892839
1356244
136177
1098083
939962
1710256
575897
244122
801469
585810
961895
1697218
597825
143650
1768274
839575
10810
1448650
829743
656156
1576194
201323
331247
802549
297579
182162
1881942
478496
1631188
834187
1610614
1171497
1916195
677322
958582
1304195
1898359
1968391
1391945
105171
172312
165789
1122959
1239318
1045997
29245
2040411
1468822
1930801
405492
1404916
1020314
510155
1236987
785955
1991286
1169219
488834
1295403
1591498
1412716
1049682
517581
1126210
588924
58945
1491003
1994262
2036066
120430
643001
1653727
770102
1781441
962109
1192398
952070
405882
1810683
905745
61305
206144
1482398
736078
1326396
250401
1882768
17677
125415
454123
1591161
1892951
1193569
137800
1754299
1478826
99572
279618
1423642
357989
1733591
1611505
1796265
252426
1101850
764608
1600121
943758
2012163
1836243
415525
42950
959615
236054
369682
1653879
1276468
797597
1048476
738304
1875288
1288015
305941
1470181
208180
888868
1090368
306273
901197
1447240
1705552
1392521
1603239
88444
1663215
486348
481519
1230009
244285
1503366
891136
289121
1392544
1987023
1196001
53148
319966
1666763
735944
1137809
964293
1040929
876283
519571
1793718
446939
1680518
494844
1956410
737690
1804168
1997185
2004585
1458269
695340
681114
1207627
902332
49712
1971451
1629867
1166421
579136
1435170
1601346
1052676
1685282
684659
1394488
1888549
932451
399345
488803
782045
1812111
332889
1773803
1604906
1484979
1111230
716042
456177
1289604
388372
391658
319201
1089388
218684
1294443
1837684
50622
877395
768003
1317545
994973
585762
165075
1414468
1811506
401681
830958
597850
565806
626031
1111910
1909663
1496776
721301
781293
1451087
833616
211426
142513
1093037
111068
981328
627066
82269
286301
1108503
1993584
873459
156301
1408523
212241
1563302
624006
1904240
455978
3616
1376281
1036690
1300826
578990
1026513
238913
1314558
1998483
1295555
51964
902882
1103890
233813
1624485
823180
935709
1914696
68211
1581678
217406
302376
934558
1002224
1611341
1089159
459548
603721
943754
1953050
1608172
1086392
1063496
1275884
1216064
1392567
316380
774412
495722
320081
1541979
646086
260035
2012929
375908
1848774
88283
1014756
1301249
1539612
1820461
1406833
471346
244407
1494740
1322187
1196732
60393
1248621
1753205
1531280
1041376
188510
20404
906035
845714
786594
430809
911015
573313
1863916
612942
270227
1284852
385352
833533
856764
135594
1549023
250957
994203
1984163
243222
19574
1297388
129870
1589638
881015
162513
1359194
577919
1456275
1998960
1119585
1873413
493496
1824943
959156
712124
149784
421686
1182963
74274
1086025
1035583
1127936
927358
822304
551479
1505043
399539
1698913
408764
1094180
887828
2038232
1712967
1088041
107428
1247929
373542
984029
972803
712927
1358518
1499023
1627706
1717254
1464967
629683
1058566
341023
1268422
731130
87525
554196
61863
1392299
1960998
22544
10736
208500
129851
1280819
187635
1703136
1744030
933527
50030
1162105
1761633
1865526
1050498
1959032
1788103
283430
1991236
328865
1728499
2219
428712
483968
1436385
1537110
720213
934501
30598
199901
1009233
639061
978168
765750
319585
1402816
535838
759042
226417
189897
802096
875959
1202742
708673
1539637
197775
86300
445182
820408
1451005
1490142
1870301
1443329
1515125
1908840
1997458
454486
1551370
780115
96022
15517
681954
986577
776447
1922479
1844116
1665455
1284434
1555982
464077
946405
1447359
1650427
612952
440241
1738113
1830529
632725
983919
1159777
1553619
1721527
1602412
525060
1895008
940065
1398613
1576528
1728007
1966354
1967859
651940
352245
1447291
511561
296616
389127
780010
375384
1232653
1677953
392335
1456290
217608
1657479
337700
705658
14023
150244
2011038
1365128
2008901
263446
2000543
1108073
911675
1417996
1721492
1011573
1045362
1642312
1429204
1673238
1016346
1403106
1329030
1508878
1369703
1061712
2007814
420244
1531277
997811
1172147
562580
1702587
720067
518165
702646
595008
1950324
849559
1926434
733691
130168
452944
201266
1419707
1806709
1705347
2045540
1655295
495516
963643
350295
1448135
372336
1195567
961761
1490150
2001750
913718
940143
659011
408444
1855906
1168184
1536940
1959342
868385
887855
441127
257900
951478
694920
1811448
1481245
1828008
1266385
1301098
1042830
59160
1017326
1484092
539355
484798
1050658
552630
362543
456025
781763
1164393
1297158
372273
136298
1089136
79226
340273
937436
211574
582105
136994
501006
1066984
509263
587631
854400
1364899
197261
1698306
440818
1206854
193300
656001
1017831
1781985
1916734
1541258
814272
726255
83802
1476394
178630
1905053
1837290
1628517
1006952
1217337
256091
1265819
2041319
341538
1728731
1847198
219783
1345469
1321782
526673
325308
1336699
1387260
1246531
1440473
607482
667789
485714
61957
915227
1729734
272447
1732653
176084
70240
862598
1932604
2033764
343277
227198
1031452
1331284
487737
1294931
1841536
1303639
746761
661316
231711
1112984
1537556
26365
736755
424109
950113
281641
604657
281118
8010
1498897
1557425
138235
874793
47775
131720
1962739
608168
1953270
1204908
259813
333107
1333112
490101
61491
1274835
2014528
620755
508941
1323103
194935
1515858
1940897
100888
1927504
279053
117787
1263423
684726
471233
392832
1621949
1212519
1190415
380685
204040
936869
928778
109649
1705716
57863
1740589
444175
285786
638160
175757
722908
1177544
1147433
937681
229536
1420698
37117
1224790
592923
1732897
179076
1203143
1304681
1879739
321483
526772
1990195
1258040
323164
115734
1575062
1651231
1837875
1216862
465353
1910134
1206042
882717
97255
257374
302675
1863623
1845919
1252042
1914215
165867
387669
856979
1701935
2937
205356
523467
1740385
1104775
783023
1867131
1404403
584609
1258800
806068
51929
317076
196460
513743
98681
1689498
1918049
1122871
1813779
1735195
1945998
1871291
1693207
753454
502358
1261523
1519048
260294
220176
1799033
1710374
518288
717197
1443117
1581
1991577
1969191
502382
1662602
433757
1308823
1863186
641056
1742567
922628
1191944
1512674
1681628
706427
650030
1005894
1863146
2011728
669720
165471
1934806
124297
89726
683096
1745289
1604898
1346237
1948669
1699760
301467
2040796
1800024
1992789
1849079
1110505
829587
77966
1698181
386420
352720
1251509
1143724
34321
1332259
480727
213504
257903
1006664
458590
888055
1752408
430449
1013413
1249106
1721169
1733452
1319694
250485
1257320
512828
1115737
692732
1914447
2027515
1815706
1369368
1579421
1200095
1280001
774935
1088585
1062406
1379356
1512297
1489343
722283
909001
1547485
1016861
1868977
1715217
2040593
423444
7865
1098847
1497093
1956717
1792402
855292
2027254
1515612
1906730
1341622
149404
179328
1354365
1334664
1990087
1490086
926821
2039659
1113552
838319
1428328
1284777
1167894
751794
1274981
367908
512406
155275
544678
1885324
2023882
144856
1558467
1272672
473394
1899488
470638
621988
751953
1907860
1898520
584044
2006186
1737833
1220926
1180964
1281115
1063358
994941
44291
964698
1703247
1568292
518797
1078290
62861
1778498
644090
1530909
952875
1652667
1394433
955295
1367211
153821
685552
19374
2019729
2027038
1982413
1536851
473541
274700
678638
543673
1369199
790394
814044
989127
624713
1496092
1521198
1590156
1399891
539413
1454276
1179920
118276
1290757
1329199
262360
127309
1568313
870156
1979111
1341362
1920920
215262
1130163
1495661
410470
1100570
1780582
853247
412467
1896641
1770895
1881493
1121695
478460
1028824
175517
784014
84812
20670
1281111
991919
454429
591269
547647
590001
1770853
1178551
1692602
832744
1929564
93671
1451507
1746378
1472655
824049
1213831
726587
1565270
924031
191707
514473
89673
1841311
1628075
1772320
1254541
909001
1533236
1145694
367524
199764
750201
1130584
371049
52865
1713147
27532
1928907
1344447
535915
11138
826628
1539311
862513
499456
1648225
468874
1693063
382238
1745539
1715985
617187
1985848
1926426
600832
1529513
17712
711334
1199279
1903589
1801964
1821001
246459
1172555
1273463
1492448
1710783
1256612
901694
1607080
1168113
342327
642708
826875
1598547
1106786
1799806
373346
1788116
499861
260171
203253
2041293
1960121
1669580
982559
843022
593735
1044153
1812176
1421747
1275241
655356
418815
39591
1851463
214335
1938433
1704699
1400298
1233899
90791
154904
448997
1447035
303005
1268785
687893
447970
572514
738754
1251885
1312639
464734
1743884
529181
1521342
1952027
798695
1072286
1551218
266809
1170260
1614439
1964450
701896
284810
620807
1385311
1241397
1171005
1832505
1083753
1764830
312525
1522721
548451
1813882
1421164
1719610
108701
116086
1352515
960569
1944791
11588
187548
245112
1058158
1674630
1874285
810359
486990
1018649
1195968
1554435
1093259
1785681
536572
814837
2031534
1768349
63990
271544
892623
708344
97343
1729807
1505609
1714771
690272
1517253
822002
1613033
855331
621512
940474
74303
1568512
115004
1601861
1513642
1558315
775586
1785695
779867
20390
665898
1461871
1853730
1462434
1077413
1706820
179558
1122509
1870223
119608
1146953
1046348
1834038
218825
1626404
315886
666375
1299669
1608666
1186110
1758455
1709335
1491205
1291507
1652733
443849
950668
1427821
970118
633213
999568
2027385
1680045
727026
755552
958384
30468
73151
643393
53905
755859
2011877
1135999
1278763
446444
1546211
89581
301767
939765
447669
1656315
1265515
1023681
1796073
1115208
2044854
366512
1626108
1472968
1993428
308653
1986429
1451170
178132
1726860
1123877
286456
1651270
441045
918225
919639
108425
1619302
1775447
577672
1400133
498839
1522817
116179
861963
1500828
1244266
249194
37890
1937205
1531796
1524734
1614521
1300471
752954
301933
1689026
126643
602054
1598055
1034957
850386
1482572
1617893
631626
949257
242246
2046342
802709
942271
1596755
1710119
332909
58424
933530
95711
921867
686777
130616
1842310
2028010
1946119
1849009
1980498
72360
1689425
691700
943244
1570463
137256
811198
260938
811274
1535068
1224673
671369
1258029
125037
241482
1498492
884705
740512
81242
1451463
995158
1650719
1417477
1184375
1269547
1198381
1155306
127093
2021906
1755420
1891758
1614710
371812
587557
1646462
1556457
266420
780009
353938
1237649
1678115
1060236
1778720
284391
1768692
1728310
913343
794117
1940647
5829
1709944
1481574
1222591
487361
1112423
296920
1397228
830789
1838486
1246293
1538380
1584790
1322417
953464
1302706
1444595
265456
974407
1042725
326453
88252
491877
1248565
808843
1647193
1544420
703638
880372
1648763
1307132
66950
869820
427599
214090
1917554
989237
434870
1586699
639323
1285299
1754330
2012973
1116998
1400616
431686
1316835
1354474
1123743
89646
1384405
366121
1187995
679748
780244
200877
1035450
945840
151954
21744
904851
1429656
1080641
663378
73882
631067
1786114
1673587
735024
2045551
1835887
569775
1793421
1601698
810110
399272
1301430
488191
737724
332341
745591
1481356
1655475
1481533
529298
1438681
1209486
1417573
753978
1116187
61170
2035872
951140
1161835
1324752
1289832
124940
662119
1433713
1686778
1256825
372847
1602630
94275
1374846
1491031
427178
1339327
493345
1336368
1957223
56224
812051
259573
392369
2028601
1627172
927642
1487878
678991
334959
1737581
1076291
1278020
256924
929412
527993
2026905
1795957
1215533
646503
1134264
782064
84246
751178
1169848
824792
1403127
1667934
1990143
384476
444013
1660612
1798621
940153
824905
1260631
862800
1227301
1825518
377423
687706
1399485
1911183
404277
1456314
611875
769697
1115357
451593
31443
64362
379744
780026
642866
1442796
739184
296901
1086950
198975
1822456
121421
907223
331560
1957951
4852
1671706
1884752
607030
1256764
1396680
1868769
271894
622248
1023741
764835
1319170
1683614
1331363
1809824
809385
509098
1912881
281477
1950583
1108509
42507
1711101
454046
297172
1530098
1657919
1604577
50683
1900568
183721
1452185
854012
988400
696857
1605087
437710
168345
1078792
301129
451345
2004066
928973
1343336
292227
354571
1628585
95446
576043
656209
421232
1756583
958205
1111285
1648029
1267654
116232
1761702
972853
1549738
2023797
767193
1774
1127288
279584
845385
1404962
1788460
135287
478123
1500548
633638
1988512
1648386
1116595
774250
1868079
954576
1562502
1501500
248598
254320
164033
280255
1888356
1782683
1354457
830103
556019
2020304
1450707
582219
2047211
1072352
607174
1629053
1818588
647448
619891
320883
690195
226310
443132
1186527
568047
1428284
547614
32453
660918
1729192
1395972
201236
915197
1226266
818314
1079801
873850
578770
1421698
461239
355179
1614258
967438
655120
537350
1609044
1408464
1261095

real	0m0.137s
user	0m0.016s
sys	0m0.076s
2;exit1;exit
Script done on Wed 02 Jan 2019 02:23:19 PM CST
